Siesta Version  : 4.1.5
Architecture    : unknown
Compiler version: GNU Fortran (GCC) 9.4.0
Compiler flags  : mpifort -march=nocona -mtune=haswell -ftree-vectorize -fPIC -fstack-protectorr-strong -fno-plt -O2 -ffunction-sections -pipe
PP flags        : -DFC_HAVE_ABORT -DCDF -DMPI -DSIESTA__MRRR -DNCDF -DNCDF_4
Libraries       : libncdf.a libfdict.a -lscalapack -llapack -lblas -lnetcdff -lnetcdf -lhdf5_hll -lhdf5 -lz
PARALLEL version
NetCDF support
NetCDF-4 support

* Running in serial mode with MPI
>> Start of run:  24-MAY-2023  18:20:40

                           ***********************       
                           *  WELCOME TO SIESTA  *       
                           ***********************       

reinit: Reading from PdSe2.fdf

reinit: -----------------------------------------------------------------------
reinit: System Name: 
reinit: -----------------------------------------------------------------------
reinit: System Label: siesta
reinit: -----------------------------------------------------------------------

initatom: Reading input for the pseudopotentials and atomic orbitals ----------
Species number:   1 Atomic number:   46 Label: Pd
Species number:   2 Atomic number:   34 Label: Se

Ground state valence configuration:   5s01  4d09
Reading pseudopotential information in formatted form from Pd.psf

Valence configuration for pseudopotential generation:
5s( 1.00) rc: 2.58
5p( 0.00) rc: 2.71
4d( 9.00) rc: 2.42
4f( 0.00) rc: 2.42
Ground state valence configuration:   4s02  4p04
Reading pseudopotential information in formatted form from Se.psf

Valence configuration for pseudopotential generation:
4s( 2.00) rc: 1.94
4p( 4.00) rc: 2.11
4d( 0.00) rc: 1.94
4f( 0.00) rc: 2.49
For Pd, standard SIESTA heuristics set lmxkb to 3
 (one more than the basis l, including polarization orbitals).
Use PS.lmax or PS.KBprojectors blocks to override.
Pd: nkbl increased for l=1 due to the presence of a polarization orbital
For Se, standard SIESTA heuristics set lmxkb to 3
 (one more than the basis l, including polarization orbitals).
Use PS.lmax or PS.KBprojectors blocks to override.

<basis_specs>
===============================================================================
Pd                   Z=  46    Mass=  106.42        Charge= 0.17977+309
Lmxo=2 Lmxkb= 3    BasisType=split      Semic=F
L=0  Nsemic=0  Cnfigmx=5
          i=1  nzeta=2  polorb=1  (5s)
            splnorm:   0.15000    
               vcte:    0.0000    
               rinn:    0.0000    
               qcoe:    0.0000    
               qyuk:    0.0000    
               qwid:   0.10000E-01
                rcs:    0.0000      0.0000    
            lambdas:    1.0000      1.0000    
L=1  Nsemic=0  Cnfigmx=5
L=2  Nsemic=0  Cnfigmx=4
          i=1  nzeta=2  polorb=0  (4d)
            splnorm:   0.15000    
               vcte:    0.0000    
               rinn:    0.0000    
               qcoe:    0.0000    
               qyuk:    0.0000    
               qwid:   0.10000E-01
                rcs:    0.0000      0.0000    
            lambdas:    1.0000      1.0000    
-------------------------------------------------------------------------------
L=0  Nkbl=1  erefs: 0.17977+309
L=1  Nkbl=2  erefs: 0.17977+309 0.17977+309
L=2  Nkbl=1  erefs: 0.17977+309
L=3  Nkbl=1  erefs: 0.17977+309
===============================================================================
</basis_specs>

atom: Called for Pd                    (Z =  46)

read_vps: Pseudopotential generation method:
read_vps: ATM3      Troullier-Martins                       
Valence charge for ps generation:   10.00000

read_vps: Pseudopotential includes a core correction:

xc_check: Exchange-correlation functional:
xc_check: Ceperley-Alder
xc_check: WARNING: Pseudopotential generated with Unknown atomic XC code functional
V l=0 = -2*Zval/r beyond r=  2.6087
V l=1 = -2*Zval/r beyond r=  2.8830
V l=2 = -2*Zval/r beyond r=  2.5763
V l=3 = -2*Zval/r beyond r=  2.5443
All V_l potentials equal beyond r=  2.6747
This should be close to max(r_c) in ps generation
All pots = -2*Zval/r beyond r=  2.8830

VLOCAL1: 99.0% of the norm of Vloc inside      6.068 Ry
VLOCAL1: 99.9% of the norm of Vloc inside     13.828 Ry
atom: Maximum radius for 4*pi*r*r*local-pseudopot. charge    3.22632
atom: Maximum radius for r*vlocal+2*Zval:    2.84721
GHOST: No ghost state for L =  0
KBgen: More than one KB projector for l=  1
KBgen: ghost states analysis will be not performed
GHOST: No ghost state for L =  2
GHOST: No ghost state for L =  3

KBgen: Kleinman-Bylander projectors: 
   l= 0   rc=  3.146660   el= -0.310910   Ekb=  3.310588   kbcos=  0.260099
   l= 1   rc=  3.266902   el= -0.070420   Ekb=  1.770254   kbcos=  0.225385
   l= 1   rc=  3.610491   el=  0.001442   Ekb=  1.788459   kbcos=  0.003727
   l= 2   rc=  2.847210   el= -0.506616   Ekb= -7.135623   kbcos= -0.692581
   l= 3   rc=  3.226319   el=  0.003502   Ekb= -2.843940   kbcos= -0.013727

KBgen: Total number of Kleinman-Bylander projectors:   19
atom: -------------------------------------------------------------------------

atom: SANKEY-TYPE ORBITALS:
atom: Selected multiple-zeta basis: split     

SPLIT: Orbitals with angular momentum L= 0

SPLIT: Basis orbitals for state 5s

SPLIT: PAO cut-off radius determined from an
SPLIT: energy shift=  0.020000 Ry

   izeta = 1
                 lambda =    1.000000
                     rc =    6.830178
                 energy =   -0.290789
                kinetic =    0.302169
    potential(screened) =   -0.592958
       potential(ionic) =   -6.914402

   izeta = 2
                 rmatch =    6.578787
              splitnorm =    0.150000
                 energy =   -0.243246
                kinetic =    0.454593
    potential(screened) =   -0.697839
       potential(ionic) =   -7.375591

SPLIT: Orbitals with angular momentum L= 2

SPLIT: Basis orbitals for state 4d

SPLIT: PAO cut-off radius determined from an
SPLIT: energy shift=  0.020000 Ry

   izeta = 1
                 lambda =    1.000000
                     rc =    4.142691
                 energy =   -0.487238
                kinetic =    5.746583
    potential(screened) =   -6.233820
       potential(ionic) =  -16.472664

   izeta = 2
                 rmatch =    2.641477
              splitnorm =    0.150000
                 energy =   -0.163453
                kinetic =    7.915444
    potential(screened) =   -8.078897
       potential(ionic) =  -19.123409

POLgen: Perturbative polarization orbital with L=  1

POLgen: Polarization orbital for state 5s

   izeta = 1
                     rc =    6.830178
                 energy =   -0.020258
                kinetic =    0.548679
    potential(screened) =   -0.568936
       potential(ionic) =   -6.504680
atom: Total number of Sankey-type orbitals: 15

atm_pop: Valence configuration (for local Pseudopot. screening):
 5s( 1.00)                                                            
 5p( 0.00)                                                            
 4d( 9.00)                                                            
Vna: chval, zval:   10.00000  10.00000

Vna:  Cut-off radius for the neutral-atom potential:   6.830178
comcore: Pseudo-core radius Rcore=  4.091229

atom: _________________________________________________________________________

<basis_specs>
===============================================================================
Se                   Z=  34    Mass=  78.960        Charge= 0.17977+309
Lmxo=1 Lmxkb= 3    BasisType=split      Semic=F
L=0  Nsemic=0  Cnfigmx=4
          i=1  nzeta=2  polorb=0  (4s)
            splnorm:   0.15000    
               vcte:    0.0000    
               rinn:    0.0000    
               qcoe:    0.0000    
               qyuk:    0.0000    
               qwid:   0.10000E-01
                rcs:    0.0000      0.0000    
            lambdas:    1.0000      1.0000    
L=1  Nsemic=0  Cnfigmx=4
          i=1  nzeta=2  polorb=1  (4p)
            splnorm:   0.15000    
               vcte:    0.0000    
               rinn:    0.0000    
               qcoe:    0.0000    
               qyuk:    0.0000    
               qwid:   0.10000E-01
                rcs:    0.0000      0.0000    
            lambdas:    1.0000      1.0000    
-------------------------------------------------------------------------------
L=0  Nkbl=1  erefs: 0.17977+309
L=1  Nkbl=1  erefs: 0.17977+309
L=2  Nkbl=1  erefs: 0.17977+309
L=3  Nkbl=1  erefs: 0.17977+309
===============================================================================
</basis_specs>

atom: Called for Se                    (Z =  34)

read_vps: Pseudopotential generation method:
read_vps: ATM3      Troullier-Martins                       
Valence charge for ps generation:    6.00000

read_vps: Pseudopotential includes a core correction:

xc_check: Exchange-correlation functional:
xc_check: Ceperley-Alder
xc_check: WARNING: Pseudopotential generated with Unknown atomic XC code functional
V l=0 = -2*Zval/r beyond r=  2.5821
V l=1 = -2*Zval/r beyond r=  2.5821
V l=2 = -2*Zval/r beyond r=  2.5821
V l=3 = -2*Zval/r beyond r=  2.6146
All V_l potentials equal beyond r=  2.4257
This should be close to max(r_c) in ps generation
All pots = -2*Zval/r beyond r=  2.6146

VLOCAL1: 99.0% of the norm of Vloc inside      7.377 Ry
VLOCAL1: 99.9% of the norm of Vloc inside     16.813 Ry
atom: Maximum radius for 4*pi*r*r*local-pseudopot. charge    2.92594
atom: Maximum radius for r*vlocal+2*Zval:    2.55004
GHOST: No ghost state for L =  0
GHOST: No ghost state for L =  1
GHOST: No ghost state for L =  2
GHOST: No ghost state for L =  3

KBgen: Kleinman-Bylander projectors: 
   l= 0   rc=  2.748658   el= -1.217621   Ekb=  6.311136   kbcos=  0.274788
   l= 1   rc=  2.853693   el= -0.477026   Ekb=  2.746607   kbcos=  0.239605
   l= 2   rc=  2.962741   el=  0.002371   Ekb=  3.890608   kbcos=  0.028154
   l= 3   rc=  3.193497   el=  0.003486   Ekb= -0.844302   kbcos= -0.011371

KBgen: Total number of Kleinman-Bylander projectors:   16
atom: -------------------------------------------------------------------------

atom: SANKEY-TYPE ORBITALS:
atom: Selected multiple-zeta basis: split     

SPLIT: Orbitals with angular momentum L= 0

SPLIT: Basis orbitals for state 4s

SPLIT: PAO cut-off radius determined from an
SPLIT: energy shift=  0.020000 Ry

   izeta = 1
                 lambda =    1.000000
                     rc =    4.365020
                 energy =   -1.199864
                kinetic =    0.782779
    potential(screened) =   -1.982643
       potential(ionic) =   -6.491281

   izeta = 2
                 rmatch =    3.710326
              splitnorm =    0.150000
                 energy =   -1.059031
                kinetic =    1.206130
    potential(screened) =   -2.265161
       potential(ionic) =   -6.948397

SPLIT: Orbitals with angular momentum L= 1

SPLIT: Basis orbitals for state 4p

SPLIT: PAO cut-off radius determined from an
SPLIT: energy shift=  0.020000 Ry

   izeta = 1
                 lambda =    1.000000
                     rc =    5.331464
                 energy =   -0.456532
                kinetic =    1.200073
    potential(screened) =   -1.656606
       potential(ionic) =   -5.816413

   izeta = 2
                 rmatch =    4.204360
              splitnorm =    0.150000
                 energy =   -0.320917
                kinetic =    1.725638
    potential(screened) =   -2.046555
       potential(ionic) =   -6.523659

POLgen: Perturbative polarization orbital with L=  2

POLgen: Polarization orbital for state 4p

   izeta = 1
                     rc =    5.331464
                 energy =    0.538234
                kinetic =    1.839758
    potential(screened) =   -1.301525
       potential(ionic) =   -5.167713
atom: Total number of Sankey-type orbitals: 13

atm_pop: Valence configuration (for local Pseudopot. screening):
 4s( 2.00)                                                            
 4p( 4.00)                                                            
Vna: chval, zval:    6.00000   6.00000

Vna:  Cut-off radius for the neutral-atom potential:   5.331464
comcore: Pseudo-core radius Rcore=  3.618716

atom: _________________________________________________________________________

prinput: Basis input ----------------------------------------------------------

PAO.BasisType split     

%block ChemicalSpeciesLabel
    1   46 Pd                      # Species index, atomic number, species label
    2   34 Se                      # Species index, atomic number, species label
%endblock ChemicalSpeciesLabel

%block PAO.Basis                 # Define Basis set
Pd                    2                    # Species label, number of l-shells
 n=5   0   2 P   1                   # n, l, Nzeta, Polarization, NzetaPol
   6.830      6.579   
   1.000      1.000   
 n=4   2   2                         # n, l, Nzeta 
   4.143      2.641   
   1.000      1.000   
Se                    2                    # Species label, number of l-shells
 n=4   0   2                         # n, l, Nzeta 
   4.365      3.710   
   1.000      1.000   
 n=4   1   2 P   1                   # n, l, Nzeta, Polarization, NzetaPol
   5.331      4.204   
   1.000      1.000   
%endblock PAO.Basis

prinput: ----------------------------------------------------------------------

Dumping basis to NetCDF file Pd.ion.nc
Dumping basis to NetCDF file Se.ion.nc
coor:   Atomic-coordinates input format  =     Cartesian coordinates
coor:                                          (in Angstroms)

siesta: Atomic coordinates (Bohr) and species
siesta:      0.00000   0.00000   0.00000  1        1
siesta:      5.44241   5.57469   0.00000  1        2
siesta:      0.00000   5.57469   7.52206  1        3
siesta:      5.44241   0.00000  16.97069  1        4
siesta:      0.21165   0.22110   0.76912  2        5
siesta:      1.15651   0.72377  -0.76912  2        6
siesta:     -0.21165   1.16596   0.17574  2        7
siesta:      0.73321  -0.22110   1.71398  2        8
siesta:     -0.21165  -0.22110  -0.76912  2        9
siesta:     -1.15651  -0.72377   0.76912  2       10
siesta:      0.21165  -1.16596  -0.17574  2       11
siesta:     -0.73321   0.22110  -1.71398  2       12

siesta: System type = bulk      

initatomlists: Number of atoms, orbitals, and projectors:     12   164   204

siesta: ******************** Simulation parameters ****************************
siesta:
siesta: The following are some of the parameters of the simulation.
siesta: A complete list of the parameters used, including default values,
siesta: can be found in file out.fdf
siesta:
redata: Spin configuration                          = none
redata: Number of spin components                   = 1
redata: Time-Reversal Symmetry                      = T
redata: Spin spiral                                 = F
redata: Long output                                 =   F
redata: Number of Atomic Species                    =        2
redata: Charge density info will appear in .RHO file
redata: Write Mulliken Pop.                         = NO
redata: Matel table size (NRTAB)                    =     1024
redata: Mesh Cutoff                                 =   300.0000 Ry
redata: Net charge of the system                    =     0.0000 |e|
redata: Min. number of SCF Iter                     =        0
redata: Max. number of SCF Iter                     =     1000
redata: SCF convergence failure will abort job
redata: SCF mix quantity                            = Hamiltonian
redata: Mix DM or H after convergence               =   F
redata: Recompute H after scf cycle                 =   F
redata: Mix DM in first SCF step                    =   T
redata: Write Pulay info on disk                    =   F
redata: New DM Occupancy tolerance                  = 0.000000000001
redata: No kicks to SCF
redata: DM Mixing Weight for Kicks                  =     0.5000
redata: Require Harris convergence for SCF          =   F
redata: Harris energy tolerance for SCF             =     0.000100 eV
redata: Require DM convergence for SCF              =   T
redata: DM tolerance for SCF                        =     0.000100
redata: Require EDM convergence for SCF             =   F
redata: EDM tolerance for SCF                       =     0.001000 eV
redata: Require H convergence for SCF               =   T
redata: Hamiltonian tolerance for SCF               =     0.001000 eV
redata: Require (free) Energy convergence for SCF   =   F
redata: (free) Energy tolerance for SCF             =     0.000100 eV
redata: Using Saved Data (generic)                  =   F
redata: Use continuation files for DM               =   F
redata: Neglect nonoverlap interactions             =   F
redata: Method of Calculation                       = Diagonalization
redata: Electronic Temperature                      =   299.9869 K
redata: Fix the spin of the system                  =   F
redata: Dynamics option                             = CG coord. optimization
redata: Variable cell                               =   F
redata: Use continuation files for CG               =   F
redata: Max atomic displ per move                   =     0.1058 Ang
redata: Maximum number of optimization moves        =     1000
redata: Force tolerance                             =     0.0100 eV/Ang
mix.SCF: Pulay mixing                            = Pulay
mix.SCF:    Variant                              = stable
mix.SCF:    History steps                        = 2
mix.SCF:    Linear mixing weight                 =     0.250000
mix.SCF:    Mixing weight                        =     0.250000
mix.SCF:    SVD condition                        = 0.1000E-07
redata: Save all siesta data in one NC              =   F
redata: ***********************************************************************

%block SCF.Mixers
  Pulay
%endblock SCF.Mixers

%block SCF.Mixer.Pulay
  # Mixing method
  method pulay
  variant stable

  # Mixing options
  weight 0.2500
  weight.linear 0.2500
  history 2
%endblock SCF.Mixer.Pulay

DM_history_depth set to one: no extrapolation allowed by default for geometry relaxation
Size of DM history Fstack: 1
Total number of electrons:    88.000000
Total ionic charge:    88.000000

* ProcessorY, Blocksize:    1  24


* Orbital distribution balance (max,min):   164   164

 Kpoints in:            1 . Kpoints trimmed:            1

siesta: k-grid: Number of k-points =     1
siesta: k-grid: Cutoff (effective) =     2.880 Ang
siesta: k-grid: Supercell and displacements
siesta: k-grid:    1   0   0      0.000
siesta: k-grid:    0   1   0      0.000
siesta: k-grid:    0   0   1      0.000

diag: Algorithm                                     = D&C
diag: Parallel over k                               =   F
diag: Use parallel 2D distribution                  =   F
diag: Parallel block-size                           = 24
diag: Parallel distribution                         =     1 x     1
diag: Used triangular part                          = Lower
diag: Absolute tolerance                            =  0.100E-15
diag: Orthogonalization factor                      =  0.100E-05
diag: Memory factor                                 =  1.0000


ts: **************************************************************
ts: Save H and S matrices                           =    T
ts: Save DM and EDM matrices                        =    F
ts: Only save the overlap matrix S                  =    F
ts: **************************************************************

************************ Begin: TS CHECKS AND WARNINGS ************************
************************ End: TS CHECKS AND WARNINGS **************************


                     ====================================
                        Begin CG opt. move =      0
                     ====================================

outcell: Unit cell vectors (Ang):
        5.760000    0.000000    0.000000
        0.000000    5.900000    0.000000
        0.000000    0.000000    7.691000

outcell: Cell vector modules (Ang)   :    5.760000    5.900000    7.691000
outcell: Cell angles (23,13,12) (deg):     90.0000     90.0000     90.0000
outcell: Cell volume (Ang**3)        :    261.3709
siesta: WARNING: Atoms     1     5 too close: rij =    0.438043 Ang
Gamma-point calculation with interaction between periodic images
Some features might not work optimally:
e.g. DM initialization from atomic data
<dSpData1D:S at geom step 0
  <sparsity:sparsity for geom step 0
    nrows_g=164 nrows=164 sparsity=.9584 nnzs=25776, refcount: 7>
  <dData1D:(new from dSpData1D) n=25776, refcount: 1>
refcount: 1>
new_DM -- step:     1
Initializing Density Matrix...
DM filled with atomic data:
<dSpData2D:DM initialized from atoms
  <sparsity:sparsity for geom step 0
    nrows_g=164 nrows=164 sparsity=.9584 nnzs=25776, refcount: 8>
  <dData2D:DM n=25776 m=1, refcount: 1>
refcount: 1>
No. of atoms with KB's overlaping orbs in proc 0. Max # of overlaps:      12     391
New grid distribution:   1
           1       1:   32    1:   32    1:   45

InitMesh: MESH =    64 x    64 x    90 =      368640
InitMesh: (bp) =    32 x    32 x    45 =       46080
InitMesh: Mesh cutoff (required, used) =   300.000   325.205 Ry
ExtMesh (bp) on 0 =   116 x   112 x   133 =     1727936
PhiOnMesh: Number of (b)points on node 0 =                46080
PhiOnMesh: nlist on node 0 =              2418692

stepf: Fermi-Dirac step function

siesta: Program's energy decomposition (eV):
siesta: Ebs     =     -1877.963205
siesta: Eions   =      6525.756472
siesta: Ena     =      5907.448937
siesta: Ekin    =      5611.343950
siesta: Enl     =      -724.755975
siesta: Eso     =         0.000000
siesta: Edftu   =         0.000000
siesta: DEna    =      -574.094431
siesta: DUscf   =       158.953897
siesta: DUext   =         0.000000
siesta: Exc     =     -1984.753189
siesta: eta*DQ  =         0.000000
siesta: Emadel  =         0.000000
siesta: Emeta   =         0.000000
siesta: Emolmec =         0.000000
siesta: Ekinion =         0.000000
siesta: Eharris =      2339.378541
siesta: Etot    =      1868.386718
siesta: FreeEng =      1868.375575

        iscf     Eharris(eV)        E_KS(eV)     FreeEng(eV)     dDmax    Ef(eV) dHmax(eV)
   scf:    1     2339.378541     1868.386718     1868.375575188.119360 -2.871170 38.609690
timer: Routine,Calls,Time,% = IterSCF        1       2.672  19.17
   scf:    2     3124.930058     2243.233074     2243.202005 14.599982 -1.266401102.976552
   scf:    3     2618.033032     2422.629439     2422.629356  5.325862 -1.696579124.012741
   scf:    4     3068.376647     2054.094188     2054.084957 28.803979 -1.660546 70.729833
   scf:    5     1846.612399     1852.504545     1852.504545  1.935297 -2.725049 32.124752
   scf:    6     3460.481223     2316.415739     2316.415427  6.184133 -2.383917110.551996
   scf:    7     2001.061188     1822.542043     1822.522780  7.803289 -3.196666 26.484333
   scf:    8     1800.774396     1810.073641     1810.042811  0.751733 -3.181592 15.492175
   scf:    9     2082.670692     1884.547935     1884.502322  1.790105 -2.360929 46.323557
   scf:   10     1869.491797     1812.865120     1812.779630  1.856327 -3.061174 13.066324
   scf:   11     1857.104064     1819.504544     1819.502711  2.132977 -3.270310 15.599265
   scf:   12     1882.868850     1831.299058     1831.285669  1.481776 -3.045942 25.232268
   scf:   13     3123.417344     2205.163863     2205.109116  6.792888 -1.771149 99.366999
   scf:   14     1823.078873     1813.855609     1813.810691  5.541198 -3.094029 18.619334
   scf:   15     1838.417149     1815.447156     1815.394681  1.412219 -3.283355 17.436136
   scf:   16     1922.456017     1832.359164     1832.281016  3.854181 -2.868107 26.356502
   scf:   17     1827.163871     1806.196496     1806.162109  4.060448 -3.493788  9.480687
   scf:   18     1813.000206     1805.257166     1805.199732  0.991580 -3.223541  6.504796
   scf:   19     1803.084331     1803.442713     1803.404819  0.763196 -3.287061  1.209814
   scf:   20     1832.564477     1813.468026     1813.401532  1.669480 -3.002838 15.678213
   scf:   21     1816.809600     1815.075898     1815.001759  0.131883 -2.971520 17.015791
   scf:   22     1814.944880     1813.604614     1813.566519  0.671395 -2.878678 16.201231
   scf:   23     1942.115988     1842.007228     1841.975843  3.137242 -2.420433 29.947224
   scf:   24     1847.377383     1820.162443     1820.162289  1.543146 -3.227895 16.282280
   scf:   25     2919.619579     2144.161188     2144.104973  6.255619 -1.861985 91.269943
   scf:   26     2058.325386     1843.129806     1843.092506  6.668386 -2.727296 30.150177
   scf:   27     1885.821707     1826.808124     1826.806494  1.668725 -3.165620 19.124547
   scf:   28     2968.213059     2167.449221     2167.379330  6.025921 -1.911201 94.272042
   scf:   29     1981.210561     1819.297996     1819.226875  7.172418 -3.298722 21.171411
   scf:   30     1827.702193     1818.769493     1818.752748  0.753651 -3.517768 17.862481
   scf:   31     2842.613698     2117.405548     2117.305485  6.657718 -2.443131 87.097978
   scf:   32     2030.940518     1840.447054     1840.407712  7.140576 -3.036086 29.088312
   scf:   33     1876.054233     1816.355213     1816.276712  1.369440 -3.094826 21.829475
   scf:   34     1801.970242     1808.174373     1808.133135  0.699111 -3.314662 13.387663
   scf:   35     1880.431419     1823.724216     1823.711357  1.381493 -3.108845 22.872666
   scf:   36     1858.387619     1815.067823     1814.970230  2.327951 -3.081090 16.804695
   scf:   37     1858.128872     1817.914951     1817.909438  1.495996 -3.300790 13.562898
   scf:   38     1891.768005     1832.810758     1832.783116  1.493182 -3.071190 26.108977
   scf:   39     3333.799246     2274.148086     2274.105369  7.069846 -1.753209107.222623
   scf:   40     1708.782166     1823.454408     1823.364241  4.856938 -2.860895 21.186963
   scf:   41     1861.282249     1817.394945     1817.386944  1.835415 -3.320629 19.017108
   scf:   42     1809.088521     1812.590571     1812.521572  0.592747 -3.433087 16.391112
   scf:   43     2955.833878     2155.965598     2155.874926  5.906014 -2.020922 93.044046
   scf:   44     1883.598122     1807.718952     1807.660945  6.494258 -3.532119 11.992123
   scf:   45     1804.063919     1805.391105     1805.370888  0.804455 -3.466199  7.770113
   scf:   46     2108.262717     1897.336804     1897.207974  3.793352 -2.440092 49.018313
   scf:   47     1773.655738     1809.758776     1809.651417  1.393442 -3.192638 12.334875
   scf:   48     1864.448011     1818.912289     1818.900853  2.128065 -3.242492 18.906487
   scf:   49     1833.346225     1813.147130     1813.118645  1.604227 -3.339981 10.985710
   scf:   50     3257.088306     2262.686246     2262.622700  5.484848 -1.740728106.162638
   scf:   51     2043.371200     1840.042879     1840.001386  6.769606 -2.913728 29.508598
   scf:   52     1933.068099     1830.254060     1830.173026  2.075987 -2.726788 23.463282
   scf:   53     1860.298579     1821.457950     1821.454963  1.572501 -3.342698 14.872392
   scf:   54     1817.838373     1816.612785     1816.584289  0.740113 -3.383458 19.250541
   scf:   55     2834.397353     2111.337795     2111.255118  7.049327 -2.580282 85.828161
   scf:   56     1927.717609     1816.477743     1816.453249  8.179823 -3.477839 16.043938
   scf:   57     1839.676161     1810.320251     1810.247410  1.981511 -3.231186 14.165058
   scf:   58     1805.541872     1804.981178     1804.956651  0.946917 -3.446751  5.794887
   scf:   59     1816.254281     1806.408736     1806.353311  0.782457 -3.174406  6.352267
   scf:   60     1807.687960     1805.865690     1805.778827  0.448003 -3.211223  8.088751
   scf:   61     1897.469925     1831.901467     1831.867744  2.024313 -2.906984 25.299540
   scf:   62     1834.343607     1814.705466     1814.687916  1.775546 -3.326774 12.089696
   scf:   63     3313.374656     2278.463715     2278.416488  5.692230 -1.701511107.735367
   scf:   64     2050.142487     1839.814094     1839.776361  6.952608 -2.920547 29.238115
   scf:   65     1906.665085     1823.343283     1823.242622  1.890805 -2.921105 22.609185
   scf:   66     1842.180226     1817.617154     1817.593901  1.255461 -3.371140 12.783886
   scf:   67     1818.379211     1815.433495     1815.399484  0.721698 -3.409066 18.066328
   scf:   68     3526.766920     2335.034417     2335.023754  7.380689 -2.250892111.766020
   scf:   69     1940.388423     1815.359809     1815.337501  8.718366 -3.471340 15.171036
   scf:   70     1878.411326     1820.368194     1820.273790  3.076914 -2.992455 18.515038
   scf:   71     1826.159426     1809.282196     1809.223354  1.559570 -3.446237  9.363783
   scf:   72     1868.000409     1824.300209     1824.279903  1.386177 -3.256706 21.820193
   scf:   73     2993.331095     2170.797042     2170.712993  7.142625 -1.933818 95.203333
   scf:   74     1731.210257     1904.131141     1904.052563  4.072456 -2.467455 49.620491
   scf:   75     1928.424143     1821.685178     1821.650381  3.494089 -3.168616 23.723339
   scf:   76     1816.244527     1818.202590     1818.182570  0.566121 -3.422538 20.727190
   scf:   77     2485.672041     2000.776670     2000.698338  7.204592 -2.820932 68.533986
   scf:   78     1937.489133     1823.358953     1823.344218  7.755089 -3.405064 19.613521
   scf:   79     1878.542814     1818.832185     1818.747516  2.805261 -3.053580 17.759881
   scf:   80     1829.314239     1811.477237     1811.416210  1.187446 -3.454569 10.799032
   scf:   81     1847.968355     1818.329278     1818.301213  1.389298 -3.373436 17.387613
   scf:   82     2962.853303     2162.054558     2161.963077  7.309987 -1.971815 94.053538
   scf:   83     1709.703880     1824.606377     1824.534995  4.428895 -2.795412 20.799407
   scf:   84     1868.082170     1815.757554     1815.684233  2.103810 -3.321056 16.853929
   scf:   85     1810.707560     1809.511194     1809.442590  0.821488 -3.484837 12.099046
   scf:   86     3314.399726     2281.630101     2281.573444  6.461296 -2.102678107.038832
   scf:   87     1939.930767     1820.490210     1820.478842  8.054341 -3.302195 19.772762
   scf:   88     2721.560151     2084.242679     2084.160786  6.196345 -2.182956 83.201001
   scf:   89     1720.000818     1830.334635     1830.246958  3.313503 -2.666959 23.994941
   scf:   90     1862.877807     1813.941088     1813.875779  1.893383 -3.356806 16.494717
   scf:   91     1807.904463     1809.764162     1809.693067  0.466153 -3.498403 13.374020
   scf:   92     2402.533618     1985.884267     1985.765399  4.863005 -2.291514 55.973553
   scf:   93     1800.838885     1804.123541     1804.104819  5.610146 -3.414580  4.812637
   scf:   94     1828.614419     1810.578205     1810.570841  1.033809 -3.242829 13.812251
   scf:   95     1808.637412     1804.064099     1804.004316  1.214336 -3.274276  3.788193
   scf:   96     1812.813078     1805.887064     1805.826969  0.471536 -3.342842  7.858484
   scf:   97     1815.194828     1808.610872     1808.590667  1.040609 -3.310944 10.049404
   scf:   98     2818.016482     2125.423849     2125.332517  6.757032 -2.072228 89.576222
   scf:   99     1711.452762     1821.365942     1821.282431  4.022369 -2.805797 20.941652
   scf:  100     1909.670341     1828.336968     1828.305098  2.334971 -3.113834 23.844851
   scf:  101     1849.570213     1818.673296     1818.669681  1.510783 -3.310683 14.005834
   scf:  102     3355.752639     2288.171062     2288.138119  5.993344 -1.718554108.692377
   scf:  103     2063.884796     1841.725363     1841.673439  7.007151 -2.936504 29.664382
   scf:  104     1870.617028     1818.003362     1817.979125  1.461906 -3.130528 20.982640
   scf:  105     2796.424574     2131.304685     2131.211425  5.268649 -2.172976 89.480542
   scf:  106     1954.498116     1816.316459     1816.280641  6.529629 -3.363243 18.523463
   scf:  107     1813.587417     1814.028670     1813.945440  0.668631 -3.466367 17.658527
   scf:  108     2789.737302     2100.937318     2100.826471  6.229427 -2.341191 85.546669
   scf:  109     1899.825871     1811.499956     1811.433323  5.571928 -3.542582 13.383409
   scf:  110     1881.792999     1830.891607     1830.865257  1.336680 -3.161106 25.031489
   scf:  111     3210.966179     2236.748828     2236.690294  7.177090 -1.901477102.817851
   scf:  112     1681.389390     1841.786371     1841.691111  4.441271 -2.635818 28.551925
   scf:  113     1878.072875     1817.797822     1817.782525  2.362306 -3.349288 19.847501
   scf:  114     1815.041112     1814.460448     1814.377638  0.782132 -3.447887 17.495750
   scf:  115     2898.908467     2136.177426     2136.082926  6.379266 -2.127079 90.228669
   scf:  116     1886.468281     1810.392028     1810.327733  5.837351 -3.523782 11.446440
   scf:  117     1884.524267     1830.269175     1830.241563  1.286606 -3.164360 25.007110
   scf:  118     3150.973430     2219.073401     2219.007748  7.041568 -1.912484100.822929
   scf:  119     1710.645058     1907.114099     1906.987687  4.131492 -2.468864 49.813397
   scf:  120     1931.454433     1822.762210     1822.742797  3.715313 -3.190751 24.377989
   scf:  121     1816.271736     1818.756126     1818.696711  0.541871 -3.365823 21.740712
   scf:  122     3622.107713     2360.475727     2360.471153  7.747719 -1.860788115.519257
   scf:  123     1979.302957     1816.715604     1816.676347  7.013591 -3.564376 18.261748
   scf:  124     1880.567624     1832.545037     1832.521107  1.421817 -3.192202 25.344961
   scf:  125     3060.341360     2184.788651     2184.725838  7.343174 -2.006982 96.356090
   scf:  126     1751.648040     1816.397370     1816.306580  5.432114 -3.093787 20.361007
   scf:  127     1844.198296     1814.253560     1814.210082  1.170025 -3.404255 16.646261
   scf:  128     1804.021110     1807.235659     1807.205877  1.035520 -3.504828 10.734721
   scf:  129     2467.091087     2009.912949     2009.796901  4.630975 -2.354167 71.907901
   scf:  130     1743.850021     1812.667631     1812.558240  2.590604 -3.164934 15.066376
   scf:  131     1869.814229     1819.711068     1819.699964  2.302981 -3.259783 19.357554
   scf:  132     1836.228647     1813.656115     1813.625265  1.521295 -3.337706 10.867059
   scf:  133     3205.766047     2246.516663     2246.452595  5.575859 -1.780289104.290530
   scf:  134     2040.889157     1839.807519     1839.765048  6.873704 -2.942552 29.358318
   scf:  135     1926.083328     1828.399037     1828.311213  2.086375 -2.771004 23.196785
   scf:  136     1857.271053     1820.841443     1820.836745  1.530818 -3.352863 14.580995
   scf:  137     1817.710627     1816.416583     1816.388442  0.735841 -3.392823 19.022915
   scf:  138     2885.306453     2127.814222     2127.738501  7.046805 -2.534008 88.161371
   scf:  139     1932.070670     1817.194765     1817.173532  8.236857 -3.471488 16.060213
   scf:  140     1851.943538     1813.014673     1812.914703  2.392143 -3.169887 15.008170
   scf:  141     1813.091945     1806.804851     1806.758782  1.154722 -3.458880  7.227690
   scf:  142     1842.964813     1815.878394     1815.867884  1.330525 -3.322042 17.004138
   scf:  143     2803.288586     2116.916032     2116.812868  6.847059 -2.187712 88.184027
   scf:  144     2007.462863     2059.667073     2059.571424  1.078406 -2.227944 80.043096
   scf:  145     2152.716031     1860.723325     1860.688795  7.544406 -2.457237 40.382691
   scf:  146     1817.431980     1831.071413     1831.058318  0.652845 -2.798299 30.181117
   scf:  147     2351.506865     1971.272764     1971.159459  7.568762 -2.983783 57.593176
   scf:  148     1889.812354     1814.567412     1814.558773  7.252647 -3.559040 14.943696
   scf:  149     1805.998214     1806.043082     1806.000589  2.111395 -3.265836  8.866485
   scf:  150     1817.159663     1806.883355     1806.827519  0.719963 -3.431007  9.247743
   scf:  151     1803.065859     1803.434450     1803.406742  0.534062 -3.375318  1.095142
   scf:  152     1827.238714     1811.094900     1811.001982  1.688934 -3.112397 14.448335
   scf:  153     1821.186460     1815.846817     1815.766677  0.354974 -2.986117 18.435619
   scf:  154     1823.271442     1818.766512     1818.709263  0.741836 -2.883022 19.809115
   scf:  155     1923.782875     1833.237672     1833.184985  3.919688 -2.675821 23.710018
   scf:  156     1836.008433     1819.304894     1819.303540  1.716675 -3.334879 16.625776
   scf:  157     2780.117518     2099.597744     2099.546610  6.332603 -2.270607 84.975980
   scf:  158     2042.288965     1841.538552     1841.499005  6.874072 -2.884302 29.467938
   scf:  159     1879.174563     1823.985177     1823.975989  1.627886 -3.208908 19.280048
   scf:  160     2988.153988     2177.513817     2177.442747  5.748080 -1.941934 95.504672
   scf:  161     1972.848708     1817.871586     1817.791707  7.105133 -3.358751 20.097665
   scf:  162     1824.702817     1817.115524     1817.083777  0.771649 -3.539424 16.873525
   scf:  163     2907.019563     2139.554212     2139.463613  6.595961 -2.313284 90.246230
   scf:  164     2021.550396     1838.019683     1837.984666  7.310724 -3.080830 28.178617
   scf:  165     1914.553802     1825.612657     1825.502444  2.316735 -2.909969 22.605397
   scf:  166     1852.440822     1819.399685     1819.382025  1.388850 -3.413970 14.313539
   scf:  167     1815.912115     1814.112560     1814.048200  0.647083 -3.454924 17.716200
   scf:  168     2928.292642     2144.622903     2144.543877  6.596193 -2.319903 90.893271
   scf:  169     1889.768125     1808.463293     1808.415362  7.409693 -3.557080 13.043699
   scf:  170     1803.884814     1804.347070     1804.329171  0.651522 -3.478956  4.094178
   scf:  171     1835.670266     1812.622832     1812.521185  2.339162 -3.025192 14.813369
   scf:  172     1805.962090     1804.230996     1804.208903  2.084925 -3.302840  5.048137
   scf:  173     1869.999378     1824.150420     1824.062809  2.383921 -2.741961 23.253720
   scf:  174     1807.133663     1814.861374     1814.759305  0.406049 -3.050800 16.779450
   scf:  175     1922.317260     1834.198187     1834.169136  2.161514 -2.955493 26.860972
   scf:  176     1848.905060     1818.931407     1818.929108  1.466726 -3.327933 14.932554
   scf:  177     3373.089309     2291.510894     2291.476827  6.333101 -1.713000109.125889
   scf:  178     2068.703694     1842.316943     1842.273075  7.106377 -2.889082 29.899714
   scf:  179     1872.735991     1819.536466     1819.513378  1.512818 -3.148919 20.748197
   scf:  180     2872.945017     2151.516008     2151.443016  5.462910 -2.050701 92.303271
   scf:  181     1958.369294     1816.285034     1816.240219  6.737267 -3.366362 18.715566
   scf:  182     1810.911269     1813.344975     1813.265368  0.466366 -3.497560 17.480960
   scf:  183     2579.769812     2034.610962     2034.481491  4.997448 -2.470333 75.320138
   scf:  184     1881.752096     1808.853050     1808.798439  5.637000 -3.544235 13.324248
   scf:  185     1804.234553     1805.392075     1805.358547  0.567540 -3.505446  7.251602
   scf:  186     1898.420870     1830.811655     1830.708664  3.515161 -2.712985 25.241263
   scf:  187     1804.819184     1803.751805     1803.733410  3.304599 -3.338390  3.285516
   scf:  188     1855.551906     1819.660452     1819.572769  2.377001 -2.880388 20.747615
   scf:  189     1809.132284     1814.061630     1813.962879  0.342986 -3.079105 16.553740
   scf:  190     1912.461590     1831.838527     1831.813495  2.243835 -2.994494 25.698419
   scf:  191     1847.718981     1818.519069     1818.515259  1.452882 -3.328874 14.440351
   scf:  192     3372.430063     2292.190568     2292.153954  6.246542 -1.710686109.279628
   scf:  193     2067.198599     1842.243344     1842.199693  7.097899 -2.884887 29.939493
   scf:  194     1870.751861     1818.052974     1818.022186  1.438267 -3.126921 21.022281
   scf:  195     2801.352317     2132.688771     2132.608268  5.404105 -2.166459 89.867301
   scf:  196     1954.680501     1816.337580     1816.303056  6.583340 -3.355968 18.423472
   scf:  197     1816.038508     1814.767719     1814.687091  0.745353 -3.448612 17.742469
   scf:  198     2823.133373     2111.247651     2111.135992  6.494980 -2.281758 86.927422
   scf:  199     1902.612382     1812.518228     1812.456046  5.611786 -3.520391 13.097455
   scf:  200     1895.721259     1834.562879     1834.526874  1.309525 -3.100650 26.824128
   scf:  201     3252.060140     2248.443670     2248.388249  7.074645 -1.888752104.134595
   scf:  202     1682.535330     1840.561477     1840.464730  4.536004 -2.646429 27.558158
   scf:  203     1877.570295     1818.434370     1818.423462  2.403933 -3.344294 20.180788
   scf:  204     1814.606709     1814.587071     1814.503059  0.756133 -3.446470 17.907414
   scf:  205     2918.323389     2141.720424     2141.628905  6.330949 -2.117573 90.938581
   scf:  206     1893.824355     1810.650852     1810.584408  5.884334 -3.542131 12.337883
   scf:  207     1879.766880     1829.396503     1829.373004  1.324194 -3.187132 24.483529
   scf:  208     3177.623157     2227.772553     2227.709972  7.119472 -1.912410101.801194
   scf:  209     1696.024656     1895.701243     1895.573453  4.176468 -2.502389 46.788326
   scf:  210     1921.688668     1821.473996     1821.450707  3.472494 -3.231674 23.368827
   scf:  211     1815.043075     1817.698357     1817.635230  0.520530 -3.402945 20.896948
   scf:  212     3610.655554     2358.390676     2358.385582  7.521181 -1.873729115.424874
   scf:  213     1967.512733     1815.066512     1815.013073  6.793187 -3.574487 17.391644
   scf:  214     1868.940804     1828.676659     1828.659174  1.428740 -3.258531 23.462236
   scf:  215     3083.437605     2194.488523     2194.427501  7.412617 -1.969126 97.662199
   scf:  216     1719.452025     1821.418129     1821.311365  4.795404 -2.988180 20.045552
   scf:  217     1854.891624     1814.914917     1814.873906  1.503362 -3.406071 17.554090
   scf:  218     1806.060890     1809.137061     1809.083103  0.898850 -3.509326 13.257376
   scf:  219     2629.157624     2058.083338     2057.979072  5.309964 -2.344396 79.557732
   scf:  220     1814.905838     1804.599895     1804.573834  5.229949 -3.449798  5.502653
   scf:  221     1836.237442     1813.251649     1813.243477  1.187178 -3.277461 15.596364
   scf:  222     1912.724289     1833.695542     1833.595876  3.410773 -2.688432 28.177757
   scf:  223     1815.815456     1822.379859     1822.282171  0.823002 -2.783260 20.644294
   scf:  224     1902.208895     1824.970736     1824.906055  2.865709 -2.983750 21.189067
   scf:  225     1824.781088     1816.810209     1816.801120  1.433126 -3.417912 16.532273
   scf:  226     2939.484983     2149.654860     2149.566556  6.350792 -2.123859 91.538909
   scf:  227     2023.962957     1837.234803     1837.200640  7.217798 -3.051436 27.801992
   scf:  228     1882.565322     1817.811618     1817.707442  1.692838 -3.034421 21.477739
   scf:  229     1811.040963     1809.379708     1809.339074  0.860804 -3.400868 12.005733
   scf:  230     1814.749123     1806.278805     1806.274457  0.839720 -3.442251  7.575139
   scf:  231     2053.505884     1881.620273     1881.493485  3.572549 -2.530821 44.651443
   scf:  232     2214.674352     2029.337792     2029.224801  1.410400 -2.296168 75.276906
   scf:  233     1732.455240     1820.713942     1820.630066  1.619867 -2.894112 20.397070
   scf:  234     2473.698666     2072.041747     2071.974860  2.491542 -2.431793 81.326103
   scf:  235     1746.240961     1878.816137     1878.749789  2.705138 -2.649719 42.785773
   scf:  236     1793.323693     1821.711576     1821.705722  1.478985 -2.847639 20.826990
   scf:  237     1806.730995     1804.504137     1804.499806  2.009090 -3.310959  3.430595
   scf:  238     1806.573485     1804.121098     1804.092117  0.718737 -3.310685  4.237176
   scf:  239     1841.142100     1814.353133     1814.270479  2.075122 -3.053867 17.174716
   scf:  240     1800.841300     1806.184967     1806.094958  1.049838 -3.185225  8.573291
   scf:  241     1823.630031     1807.937924     1807.885574  1.471363 -3.281776  9.515320
   scf:  242     1805.251284     1804.969364     1804.917455  0.829691 -3.334700  5.819080
   scf:  243     2783.717378     2120.630332     2120.545800  5.714214 -2.198186 88.655002
   scf:  244     1891.090303     1812.737931     1812.725873  7.206266 -3.273657 14.419864
   scf:  245     2017.320764     1863.736396     1863.622524  3.339903 -2.476926 38.968647
   scf:  246     1797.673904     1808.397805     1808.307538  1.205559 -3.181849 12.281976
   scf:  247     1907.218151     1831.665598     1831.626181  1.701308 -3.056807 25.539238
   scf:  248     1853.600211     1812.202924     1812.115151  2.325224 -3.161559 13.428345
   scf:  249     1849.416975     1816.165413     1816.151957  1.422963 -3.324104 12.536139
   scf:  250     1881.475101     1828.683898     1828.660762  1.431220 -3.127094 24.410555
   scf:  251     3449.161929     2316.612714     2316.586079  6.935644 -1.715093111.757474
   scf:  252     1666.909630     1907.256853     1907.175962  4.272788 -2.454237 49.781527
   scf:  253     1939.188389     1823.373064     1823.301333  3.459652 -3.161638 23.610256
   scf:  254     1828.115609     1820.526033     1820.522705  0.727168 -3.442059 19.762892
   scf:  255     2285.431705     1941.465853     1941.395318  5.470748 -2.692648 56.692641
   scf:  256     1988.960544     1837.748428     1837.708108  5.402909 -3.100526 27.498474
   scf:  257     1863.277828     1818.420594     1818.394725  1.482650 -3.260134 18.530094
   scf:  258     2907.389227     2158.121757     2158.045216  5.710476 -2.075092 93.111164
   scf:  259     1955.841026     1816.722269     1816.637943  7.058431 -3.365775 17.956623
   scf:  260     1826.371984     1815.067060     1815.021710  1.104031 -3.499271 13.835929
   scf:  261     3035.916327     2186.546943     2186.474577  6.269271 -2.045601 96.632374
   scf:  262     2021.872618     1837.417161     1837.377113  7.198137 -3.079629 28.137708
   scf:  263     1958.551523     1837.783849     1837.688493  2.447393 -2.671084 25.797548
   scf:  264     1871.530782     1822.933005     1822.931275  2.065658 -3.356291 15.614549
   scf:  265     1819.545161     1816.317735     1816.258490  0.751174 -3.397330 19.474387
   scf:  266     2865.808787     2121.517733     2121.429878  6.864906 -2.477261 87.578753
   scf:  267     1907.709849     1810.557095     1810.484191  6.684682 -3.573674 15.134894
   scf:  268     1811.714856     1809.331706     1809.317951  1.451404 -3.516661 11.581658
   scf:  269     2799.300217     2115.468082     2115.360959  7.238450 -2.195903 87.928832
   scf:  270     1730.522594     1812.508281     1812.398888  4.380392 -3.176375 13.439279
   scf:  271     1889.535173     1824.725730     1824.706146  1.995313 -3.202702 22.274943
   scf:  272     1838.763150     1814.908083     1814.886718  1.456207 -3.369030 12.342908
   scf:  273     3408.216198     2308.968293     2308.937172  5.680133 -1.727407111.014197
   scf:  274     2052.832557     1840.357709     1840.312591  6.889142 -2.959570 29.432479
   scf:  275     1921.616213     1827.076910     1826.978943  2.073901 -2.835349 23.235227
   scf:  276     1854.381012     1820.350779     1820.343229  1.483374 -3.370949 14.410260
   scf:  277     1817.379630     1816.169246     1816.138750  0.732150 -3.413080 18.815894
   scf:  278     2913.165595     2136.926943     2136.832743  7.073524 -2.476116 89.379963
   scf:  279     1933.058865     1817.517475     1817.499706  8.346150 -3.468482 15.880822
   scf:  280     1868.894767     1817.263490     1817.153668  2.877183 -3.082032 15.729389
   scf:  281     1823.906085     1809.286704     1809.227273  1.306363 -3.455982  9.447098
   scf:  282     1859.855120     1821.709200     1821.689942  1.387653 -3.302090 20.245292
   scf:  283     2976.418662     2166.602008     2166.507424  7.214521 -1.945860 94.709917
   scf:  284     1721.529909     1894.421828     1894.322339  4.035640 -2.493798 47.198700
   scf:  285     1920.056082     1820.430268     1820.392297  3.270593 -3.209067 22.575578
   scf:  286     1816.228153     1817.438903     1817.416292  0.566752 -3.453037 19.795963
   scf:  287     2679.859219     2062.504202     2062.427089  7.345040 -2.725270 79.003620
   scf:  288     1963.052543     1826.462118     1826.445829  8.058414 -3.337402 21.673817
   scf:  289     1878.204462     1818.237494     1818.152998  2.581189 -3.060294 18.725986
   scf:  290     1826.635899     1811.427440     1811.368267  1.009634 -3.445405 10.401428
   scf:  291     1835.813989     1814.625618     1814.588574  1.348790 -3.406677 14.145472
   scf:  292     2910.622700     2146.696783     2146.600927  7.219149 -2.019225 92.091983
   scf:  293     1717.659963     1819.490850     1819.410552  4.572910 -2.993903 17.812479
   scf:  294     1889.822995     1822.629873     1822.578566  2.400811 -3.263130 19.854947
   scf:  295     1834.195748     1814.600941     1814.569851  1.486096 -3.391155 12.624249
   scf:  296     3121.730876     2216.301002     2216.232140  5.700293 -1.867509100.480280
   scf:  297     2032.737596     1838.637025     1838.589365  6.941352 -3.044833 28.712279
   scf:  298     1931.947541     1830.239235     1830.150300  2.163068 -2.730339 23.288678
   scf:  299     1861.168267     1821.443095     1821.439500  1.572447 -3.358301 14.932696
   scf:  300     1817.335090     1816.210206     1816.174905  0.725916 -3.407058 18.910209
   scf:  301     2880.847416     2126.561678     2126.482173  6.990100 -2.528872 88.033629
   scf:  302     1918.946507     1813.987602     1813.954689  8.085434 -3.508737 15.409258
   scf:  303     1825.924954     1807.744121     1807.701507  1.363917 -3.321075 12.208133
   scf:  304     1802.357107     1804.135393     1804.091916  0.332875 -3.352000  4.257331
   scf:  305     1836.576875     1812.852561     1812.817119  1.311852 -3.278377 13.745531
   scf:  306     1823.967129     1807.010138     1806.926957  2.009994 -3.234435  8.691774
   scf:  307     1816.885211     1806.820224     1806.766261  0.583893 -3.352555  7.085740
   scf:  308     1854.459967     1820.386091     1820.370752  1.536311 -3.210063 19.792851
   scf:  309     2949.041094     2158.967617     2158.885298  7.131294 -1.916058 93.797183
   scf:  310     1702.166259     1865.467802     1865.351741  4.142863 -2.491095 38.540067
   scf:  311     1900.859146     1818.810157     1818.780604  2.905183 -3.209834 20.825139
   scf:  312     1814.674664     1816.171069     1816.139659  0.607006 -3.435281 18.664914
   scf:  313     3615.174819     2362.359492     2362.353922  7.890936 -2.301962114.304070
   scf:  314     1966.113586     1821.301674     1821.290417  9.015149 -3.403469 18.720716
   scf:  315     1925.957391     1832.251876     1832.180181  3.429918 -2.738918 24.386292
   scf:  316     1847.667799     1814.927597     1814.887986  1.610806 -3.405942 11.761307
   scf:  317     1869.739659     1825.066926     1825.031894  1.461095 -3.290865 21.447493
   scf:  318     3162.533357     2221.531473     2221.456389  7.313793 -1.866564101.164210
   scf:  319     1722.906722     1819.420194     1819.339173  4.911385 -2.999964 18.720285
   scf:  320     1856.692524     1815.288192     1815.240454  1.567423 -3.355972 17.710545
   scf:  321     1803.659308     1808.391678     1808.334495  0.822499 -3.496879 12.558259
   scf:  322     2330.080811     1963.412334     1963.329272  3.381484 -2.415863 63.042259
   scf:  323     1809.549092     1803.949113     1803.930185  3.656643 -3.438338  3.267055
   scf:  324     1808.848494     1804.850600     1804.830072  0.507308 -3.290137  6.480816
   scf:  325     1842.101801     1815.055215     1814.949728  2.284403 -3.053362 17.604727
   scf:  326     1819.686095     1816.973054     1816.877569  0.252193 -2.973346 18.149823
   scf:  327     1956.029794     1843.032975     1842.965998  2.947620 -2.650276 29.778066
   scf:  328     1847.102465     1820.435934     1820.435383  1.315695 -3.312348 16.534034
   scf:  329     2905.196722     2139.567583     2139.485654  6.451585 -2.042466 90.473794
   scf:  330     2049.656601     1841.230992     1841.191170  6.984518 -2.919351 29.159552
   scf:  331     1880.280908     1824.913635     1824.907421  1.633284 -3.218336 19.111981
   scf:  332     2979.612278     2172.967533     2172.892194  5.816326 -1.968987 94.888699
   scf:  333     1974.086194     1818.100300     1818.021545  7.070472 -3.363673 20.425807
   scf:  334     1824.107323     1817.166517     1817.135171  0.711354 -3.548406 17.138751
   scf:  335     2893.415761     2134.771475     2134.673016  6.638115 -2.366657 89.529904
   scf:  336     2019.548062     1837.708551     1837.675980  7.353704 -3.094452 28.011899
   scf:  337     1914.528624     1825.659352     1825.552232  2.361990 -2.912280 22.547561
   scf:  338     1852.753238     1819.408190     1819.390566  1.391994 -3.417460 14.353763
   scf:  339     1815.935473     1813.982562     1813.915958  0.672460 -3.457625 17.643315
   scf:  340     2925.274960     2143.878865     2143.801565  6.572376 -2.316246 90.792611
   scf:  341     1887.731554     1808.196774     1808.145516  7.261805 -3.561999 12.842796
   scf:  342     1802.493361     1804.319282     1804.301557  0.529375 -3.491588  5.315167
   scf:  343     1852.456492     1817.606285     1817.502909  2.867296 -2.946928 19.501437
   scf:  344     1802.659815     1803.598922     1803.567120  2.128486 -3.296588  2.572391
   scf:  345     1850.225417     1819.009830     1818.925084  1.972182 -2.896066 20.423072
   scf:  346     1811.617160     1815.136076     1815.045076  0.267151 -3.029893 17.483858
   scf:  347     1924.042966     1835.013318     1834.985700  2.291301 -2.906762 27.150257
   scf:  348     1849.746241     1819.306054     1819.303968  1.459465 -3.321007 14.961509
   scf:  349     3275.772345     2260.038348     2259.991877  6.404146 -1.736442105.719629
   scf:  350     2065.543994     1842.227020     1842.184700  7.146269 -2.880794 29.838928
   scf:  351     1873.733134     1820.394108     1820.371238  1.540476 -3.156115 20.466030
   scf:  352     2899.504229     2157.619051     2157.554662  5.544854 -2.018602 93.104643
   scf:  353     1960.499440     1816.364976     1816.312901  6.844607 -3.366464 18.941831
   scf:  354     1812.153891     1813.890766     1813.823515  0.487629 -3.518792 17.453909
   scf:  355     2497.603459     2012.883535     2012.748299  5.805364 -2.294995 54.647255
   scf:  356     1837.655248     1806.025826     1806.022024  6.910737 -3.562265  7.366715
   scf:  357     1810.626436     1804.838382     1804.787474  1.377969 -3.214487  4.695928
   scf:  358     1803.430990     1803.564750     1803.536987  0.580202 -3.301866  2.758102
   scf:  359     1848.265727     1817.863029     1817.772361  2.281814 -2.933231 19.581161
   scf:  360     1811.792627     1814.695939     1814.598730  0.271531 -3.059475 16.964027
   scf:  361     1922.176392     1834.584798     1834.559008  2.374258 -2.923699 26.920217
   scf:  362     1849.550339     1819.207273     1819.204910  1.453929 -3.320823 14.862666
   scf:  363     3281.336886     2262.170175     2262.125570  6.335020 -1.729394105.908792
   scf:  364     2065.030687     1842.041616     1842.000268  7.120459 -2.883632 29.762588
   scf:  365     1873.830942     1820.513538     1820.493251  1.547225 -3.162028 20.409121
   scf:  366     2910.284533     2160.744580     2160.677439  5.513370 -1.997778 93.464521
   scf:  367     1960.922198     1816.337595     1816.282386  6.834731 -3.366505 18.981887
   scf:  368     1812.705132     1814.053726     1813.989443  0.517160 -3.522254 17.421686
   scf:  369     3017.700004     2177.666736     2177.550204  6.648827 -2.167052 77.339026
   scf:  370     1850.557066     1806.238201     1806.230826  7.770162 -3.577398  6.987912
   scf:  371     1813.810093     1805.665063     1805.597020  1.716329 -3.209118  7.280245
   scf:  372     1809.017783     1804.853900     1804.841684  1.333304 -3.332607  6.009119
   scf:  373     1857.755916     1819.119065     1819.028266  2.565934 -2.888664 19.896167
   scf:  374     1801.471470     1808.719684     1808.611536  0.621819 -3.186779 10.616285
   scf:  375     1891.491552     1826.890805     1826.873281  1.828194 -3.088722 23.578101
   scf:  376     1832.834194     1813.891154     1813.863494  1.446129 -3.358156 12.694963
   scf:  377     3440.852138     2318.492052     2318.465571  5.753281 -1.685236112.154502
   scf:  378     2043.252361     1837.817226     1837.784358  6.988476 -2.956132 28.402591
   scf:  379     1925.770620     1828.643808     1828.556193  2.211648 -2.759518 22.869362
   scf:  380     1858.076169     1820.696281     1820.691366  1.533887 -3.352079 14.637703
   scf:  381     1817.908163     1815.998550     1815.959241  0.701967 -3.384905 18.895401
   scf:  382     2892.708508     2130.587174     2130.509710  6.905249 -2.460175 88.790916
   scf:  383     1912.118003     1812.203507     1812.160544  7.869289 -3.517730 15.156893
   scf:  384     1815.250480     1806.235236     1806.214310  1.091420 -3.411141  9.979128
   scf:  385     1847.948475     1818.355085     1818.247330  2.612908 -3.033293 19.758717
   scf:  386     1863.643183     1818.308460     1818.296305  3.283416 -3.238694 18.834732
   scf:  387     1863.459378     1815.925626     1815.817559  2.335422 -3.046191 15.209003
   scf:  388     1837.279529     1813.386826     1813.355118  1.128492 -3.353214 11.351324
   scf:  389     1883.949776     1830.355720     1830.318061  1.531605 -3.124684 24.590192
   scf:  390     3327.493220     2272.462390     2272.419969  7.134347 -1.792936106.886733
   scf:  391     1742.005299     1816.491333     1816.386296  5.140865 -3.025424 19.717741
   scf:  392     1852.004166     1816.369934     1816.349278  1.512078 -3.330855 18.192612
   scf:  393     1805.093625     1809.031328     1808.974282  0.992325 -3.461481 12.644608
   scf:  394     2755.922579     2099.516220     2099.422593  5.882490 -2.249373 86.017420
   scf:  395     1799.480881     1804.419359     1804.392501  5.687458 -3.401020  5.938501
   scf:  396     1835.079312     1812.438004     1812.428762  1.181978 -3.260932 15.025366
   scf:  397     1856.290366     1816.856902     1816.768276  2.864319 -3.012473 18.731100
   scf:  398     1810.900205     1807.901839     1807.825714  0.913031 -3.188439 11.427031
   scf:  399     1899.691282     1830.026110     1829.995313  1.832478 -3.065724 24.687512
   scf:  400     1879.266533     1819.043535     1818.959850  3.094234 -2.964416 19.224104
   scf:  401     1856.737239     1817.228462     1817.215682  1.652839 -3.300081 12.046227
   scf:  402     1888.881105     1830.355145     1830.329759  1.476744 -3.121969 25.083488
   scf:  403     3420.091399     2305.300853     2305.268172  6.967218 -1.743973110.502975
   scf:  404     1655.636471     1859.604362     1859.509662  4.437460 -2.571765 35.288452
   scf:  405     1893.321861     1818.794180     1818.774988  2.731429 -3.293277 20.915612
   scf:  406     1812.283929     1815.296371     1815.229702  0.523186 -3.441196 18.823450
   scf:  407     3228.275289     2238.876195     2238.819679  6.571140 -1.969850103.009277
   scf:  408     1921.665557     1810.635796     1810.563021  6.395395 -3.562179 14.910418
   scf:  409     1817.760527     1811.546393     1811.529412  1.417503 -3.485102 12.588538
   scf:  410     2874.070997     2137.300954     2137.219147  7.378598 -2.103356 90.870918
   scf:  411     1726.985645     1814.426086     1814.338682  4.579220 -3.140729 14.442643
   scf:  412     1892.885222     1824.985920     1824.957618  2.021257 -3.211939 22.141168
   scf:  413     1837.745708     1814.739481     1814.718340  1.457123 -3.369857 12.310951
   scf:  414     3340.435764     2287.465767     2287.420369  5.586120 -1.750215108.647515
   scf:  415     2049.150524     1840.118632     1840.070735  6.839600 -2.982621 29.312346
   scf:  416     1918.212266     1826.311930     1826.225988  2.026031 -2.822806 23.097152
   scf:  417     1851.354602     1819.717146     1819.704931  1.425952 -3.375134 13.993432
   scf:  418     1817.377716     1815.893041     1815.859585  0.727706 -3.423896 18.451655
   scf:  419     2944.167009     2147.373369     2147.306895  7.134602 -2.458955 90.575356
   scf:  420     1928.497402     1816.498787     1816.481622  8.461544 -3.475793 15.370163
   scf:  421     1876.702689     1819.684670     1819.602286  2.997633 -3.009077 17.425695
   scf:  422     1825.915616     1809.494592     1809.436549  1.361306 -3.446435  9.424913
   scf:  423     1865.489591     1823.407966     1823.386865  1.384889 -3.272209 21.288310
   scf:  424     3001.985022     2173.973628     2173.881915  7.156538 -1.928418 95.521824
   scf:  425     1715.013826     1890.009201     1889.908019  4.116207 -2.501724 45.283890
   scf:  426     1917.259940     1820.458551     1820.429501  3.284634 -3.227382 22.378337
   scf:  427     1814.517376     1817.128828     1817.094387  0.595574 -3.442847 19.864969
   scf:  428     3703.477816     2388.912027     2388.910028  8.872546 -2.418301116.349260
   scf:  429     1935.056267     1814.505549     1814.484261  9.790301 -3.522041 15.254465
   scf:  430     1877.530709     1820.445096     1820.381477  3.200700 -2.948302 18.327486
   scf:  431     1821.022202     1807.927486     1807.874651  1.762281 -3.464462  8.180049
   scf:  432     1862.660873     1822.218471     1822.201327  1.382939 -3.255964 20.928516
   scf:  433     2900.985790     2143.428404     2143.330658  7.018797 -2.031720 91.689877
   scf:  434     1863.537074     1989.476153     1989.372517  2.622998 -2.335895 67.723784
   scf:  435     1997.738198     1830.662165     1830.657333  5.846506 -2.896136 29.615332
   scf:  436     1822.403481     1824.221275     1824.163376  0.545782 -3.100694 25.473419
   scf:  437     3380.059588     2275.945166     2275.895440  8.235128 -1.850758106.243554
   scf:  438     2001.390232     1822.542448     1822.538258  7.652524 -3.445956 21.397757
   scf:  439     1906.505800     1841.540944     1841.496694  1.426755 -2.996806 28.840306
   scf:  440     2895.723115     2125.301953     2125.213772  7.206755 -2.356420 88.103500
   scf:  441     1926.535352     1823.583546     1823.569378  5.672365 -3.315725 19.234800
   scf:  442     1836.698475     1817.602517     1817.511772  1.251701 -3.426604 19.584239
   scf:  443     2949.583917     2148.684539     2148.594160  7.457763 -2.286733 91.543773
   scf:  444     1916.818374     1813.822980     1813.762759  6.482487 -3.557091 13.895377
   scf:  445     1897.256563     1834.679219     1834.646721  1.314825 -3.136059 26.951570
   scf:  446     3252.951569     2249.250957     2249.197451  7.111858 -1.907865104.166581
   scf:  447     1674.699751     1863.522662     1863.409715  4.391054 -2.594179 36.572037
   scf:  448     1895.859869     1819.655523     1819.639554  2.879812 -3.320952 21.602335
   scf:  449     1819.889276     1817.245697     1817.159533  0.772495 -3.427941 19.431761
   scf:  450     2933.230733     2143.725557     2143.642511  6.686846 -2.145687 91.041614
   scf:  451     1921.445572     1814.922494     1814.872477  5.812663 -3.539762 14.429163
   scf:  452     1902.276892     1836.605104     1836.563521  1.314766 -3.116510 27.577454
   scf:  453     3256.732813     2248.368724     2248.320425  7.067547 -1.918731103.974815
   scf:  454     1697.759647     1830.143996     1830.043759  4.636673 -2.779371 22.916800
   scf:  455     1867.064016     1817.912013     1817.901551  2.154660 -3.388834 19.443778
   scf:  456     1809.793390     1812.445769     1812.367857  0.771793 -3.493260 16.648154
   scf:  457     2878.396938     2131.564465     2131.464360  5.915690 -2.188024 89.812059
   scf:  458     1870.905948     1807.326086     1807.270787  6.305109 -3.553634 10.636725
   scf:  459     1827.759581     1812.852415     1812.842738  1.164922 -3.396886 13.992250
   scf:  460     2866.577592     2137.248296     2137.150594  7.326722 -2.090527 90.835106
   scf:  461     1698.172318     1840.688271     1840.589108  3.955877 -2.598900 30.167447
   scf:  462     1890.427257     1819.009709     1818.939656  2.570197 -3.268987 17.067754
   scf:  463     1830.891474     1815.471767     1815.442949  1.201397 -3.427439 13.576304
   scf:  464     3180.756114     2233.268621     2233.215812  5.910828 -1.886434102.314878
   scf:  465     2036.161104     1839.162473     1839.116500  7.046622 -3.030025 28.958541
   scf:  466     1960.291487     1837.876142     1837.771649  2.264512 -2.681548 25.421083
   scf:  467     1871.951845     1823.336309     1823.335329  2.082135 -3.340033 15.792713
   scf:  468     1818.574066     1816.785019     1816.742000  0.754090 -3.386947 19.722997
   scf:  469     2835.376265     2111.203678     2111.118502  6.951406 -2.558630 85.953133
   scf:  470     1909.422087     1811.124906     1811.060125  7.343506 -3.548907 15.588767
   scf:  471     1806.600117     1805.982360     1805.957741  0.959149 -3.530711  6.835060
   scf:  472     1917.951576     1837.196664     1837.092135  3.956229 -2.721034 28.597945
   scf:  473     1825.172098     1807.956486     1807.948997  4.104719 -3.339963 10.424474
   scf:  474     2080.726086     1888.225434     1888.105122  3.429704 -2.453182 46.433580
   scf:  475     1781.122557     1821.750068     1821.653367  0.873880 -2.807483 20.966500
   scf:  476     1907.758746     1827.665379     1827.636140  2.330183 -3.138114 23.512334
   scf:  477     1849.618913     1818.659098     1818.654801  1.523645 -3.324556 13.954040
   scf:  478     3370.605236     2292.971112     2292.937793  6.029965 -1.722610109.254291
   scf:  479     2063.428999     1841.614593     1841.562949  7.049675 -2.947865 29.638298
   scf:  480     1869.672066     1817.315877     1817.284293  1.402946 -3.123594 21.130074
   scf:  481     2746.415228     2117.079235     2116.981838  5.232575 -2.247983 87.664707
   scf:  482     1950.680355     1816.208100     1816.176386  6.389099 -3.360412 18.216244
   scf:  483     1819.051159     1815.563596     1815.487645  0.832966 -3.438571 17.735727
   scf:  484     2848.361999     2119.193302     2119.081460  6.666495 -2.237302 88.079244
   scf:  485     1898.936055     1812.735546     1812.675799  5.664392 -3.497044 12.297239
   scf:  486     1900.448510     1835.238431     1835.197945  1.257288 -3.097936 27.135165
   scf:  487     3241.059476     2244.563868     2244.507223  7.034407 -1.885580103.709668
   scf:  488     1687.361542     1837.441815     1837.347133  4.574946 -2.662824 25.966132
   scf:  489     1875.080241     1818.448409     1818.438954  2.343954 -3.345151 20.085182
   scf:  490     1812.958773     1814.121303     1814.039337  0.715441 -3.452115 17.785932
   scf:  491     2930.655019     2145.916351     2145.827336  6.212878 -2.107542 91.542791
   scf:  492     1892.493600     1809.864879     1809.796824  5.979245 -3.553336 12.455266
   scf:  493     1864.975126     1825.169780     1825.154291  1.380241 -3.258274 22.189525
   scf:  494     3112.429498     2208.597791     2208.528452  7.251914 -1.927691 99.582461
   scf:  495     1692.144264     1882.027821     1881.901833  4.108333 -2.525317 43.236695
   scf:  496     1910.001732     1819.706258     1819.678786  3.156612 -3.267059 21.906051
   scf:  497     1812.974625     1816.129697     1816.068101  0.502222 -3.443815 19.576395
   scf:  498     3623.054509     2364.816087     2364.813171  7.318092 -1.994860116.141359
   scf:  499     1933.861678     1810.586068     1810.512699  7.045993 -3.572707 15.228582
   scf:  500     1806.451203     1807.437019     1807.419441  1.304443 -3.526553 10.559146
   scf:  501     2589.471514     2049.413922     2049.295634  6.207038 -2.307714 78.472378
   scf:  502     1761.604943     1806.852990     1806.778479  4.008907 -3.288543  7.998857
   scf:  503     1865.755914     1819.945133     1819.932149  1.510547 -3.211600 19.911024
   scf:  504     1820.003110     1808.540848     1808.495375  1.570790 -3.362653  8.339010
   scf:  505     3045.698924     2200.792182     2200.699496  5.447814 -1.801483 99.062820
   scf:  506     1999.940354     1832.313428     1832.284167  6.818758 -3.039153 26.173879
   scf:  507     2029.469034     1859.771861     1859.661281  2.443231 -2.537179 35.794585
   scf:  508     1882.881580     1823.481113     1823.480331  2.044405 -3.283537 14.776216
   scf:  509     1852.707852     1823.222634     1823.143866  1.260808 -3.240173 20.729483
   scf:  510     2920.427516     2136.140913     2136.049823  7.276765 -2.236721 89.993646
   scf:  511     1945.118686     1820.208077     1820.196755  6.189265 -3.447222 15.393331
   scf:  512     1911.372402     1838.850435     1838.798779  1.533256 -3.109205 28.100538
   scf:  513     3121.030113     2200.851196     2200.786997  7.121902 -1.957337 98.319973
   scf:  514     1837.730868     1815.645423     1815.621168  6.054523 -3.203344 20.655575
   scf:  515     1829.105387     1814.153102     1814.103980  1.403967 -3.397306 16.539706
   scf:  516     2048.254058     1869.463316     1869.349636  3.973327 -2.731653 40.115716
   scf:  517     1848.012345     1808.657922     1808.632850  4.843660 -3.500911 11.853052
   scf:  518     1857.139822     1816.317411     1816.212148  2.746612 -3.067801 17.491023
   scf:  519     1810.773312     1804.709035     1804.673747  1.968135 -3.423523  4.815860
   scf:  520     1833.902306     1813.211902     1813.202675  1.170236 -3.293533 15.186178
   scf:  521     2213.621556     1928.124794     1927.991875  4.157768 -2.447907 56.148491
   scf:  522     1850.151324     1885.467597     1885.346518  0.913385 -2.447420 45.367528
   scf:  523     1946.283105     1826.691900     1826.668489  4.195470 -2.826089 26.473263
   scf:  524     1819.598703     1820.839345     1820.836556  0.688322 -3.302356 21.725598
   scf:  525     1991.591751     1850.947307     1850.882947  5.890331 -3.003782 32.565430
   scf:  526     1918.610872     1828.230259     1828.213161  5.447704 -3.263313 23.229393
   scf:  527     1900.322503     1823.750206     1823.680221  2.572623 -2.922081 19.070165
   scf:  528     1851.113567     1817.380848     1817.358134  1.346608 -3.405228 13.697834
   scf:  529     1851.269620     1820.678502     1820.627530  1.341035 -3.344158 17.940833
   scf:  530     3015.151178     2173.763287     2173.683535  7.185659 -1.968894 95.120860
   scf:  531     1826.051894     1810.180121     1810.146295  5.858809 -3.307336 14.789943
   scf:  532     1864.723255     1820.243081     1820.202878  1.490458 -3.288631 18.867134
   scf:  533     2752.510180     2093.176741     2093.078297  6.668479 -2.337562 84.313011
   scf:  534     1737.681721     1818.377691     1818.264042  4.179396 -3.012293 16.935144
   scf:  535     1864.591064     1816.433379     1816.374570  1.749576 -3.287483 17.772965
   scf:  536     1805.768743     1809.429382     1809.357720  0.703776 -3.483555 13.226707
   scf:  537     2295.112009     1955.505077     1955.381027  3.876172 -2.278142 40.215463
   scf:  538     1799.248764     1816.453161     1816.344519  2.933865 -3.099816 17.280968
   scf:  539     2447.347033     2003.985139     2003.984186  1.949952 -2.163464 71.847377
   scf:  540     1850.505183     1821.902831     1821.902358  2.710543 -3.108169 21.060530
   scf:  541     3024.470621     2169.583369     2169.509281  7.591996 -1.832332 94.285160
   scf:  542     2039.100226     1833.309287     1833.276187  7.212441 -3.016741 23.463021
   scf:  543     1868.339898     1827.095026     1827.094872  1.499140 -3.326730 17.181954
   scf:  544     2645.040642     2057.397952     2057.288820  6.408994 -2.473717 78.339020
   scf:  545     2015.749069     1834.328492     1834.269088  6.817763 -3.180063 24.462792
   scf:  546     1867.926332     1825.012633     1825.009829  1.561131 -3.366557 15.977491
   scf:  547     2860.777705     2128.325327     2128.213976  6.384103 -2.291832 88.842451
   scf:  548     2000.184807     1827.887629     1827.817707  7.307304 -3.319990 20.964444
   scf:  549     1851.536733     1819.815011     1819.790393  1.443197 -3.413217 14.882998
   scf:  550     2900.552604     2145.369533     2145.273360  6.030189 -2.225140 91.228423
   scf:  551     1999.357870     1829.866797     1829.815521  7.427434 -3.304003 23.303598
   scf:  552     1847.815872     1813.621415     1813.597227  1.391757 -3.308000 17.786902
   scf:  553     2743.020169     2112.611410     2112.507011  5.814587 -2.327533 87.134037
   scf:  554     1926.080281     1813.809074     1813.730017  6.633757 -3.369550 15.206494
   scf:  555     1819.215040     1810.965877     1810.909130  1.029205 -3.467837 10.550447
   scf:  556     3323.053119     2287.626469     2287.582429  6.302198 -1.938777108.299784
   scf:  557     2006.346041     1833.048614     1833.014873  7.319338 -3.105835 26.501714
   scf:  558     2444.494499     1987.989002     1987.888334  4.184523 -2.328241 67.458981
   scf:  559     1879.286678     1819.941744     1819.925617  2.884157 -3.209028 17.798810
   scf:  560     1851.584453     1821.003045     1820.919021  1.600872 -3.285572 20.390701
   scf:  561     3048.435360     2177.797871     2177.730241  7.706428 -2.147051 95.181380
   scf:  562     1947.266895     1818.270872     1818.245979  6.649126 -3.499358 15.345989
   scf:  563     1913.108715     1839.570086     1839.524941  1.491195 -3.076636 28.842683
   scf:  564     3246.994000     2243.412487     2243.362476  7.062767 -1.905676103.383540
   scf:  565     1713.861457     1825.500491     1825.397032  4.863998 -2.908099 23.029215
   scf:  566     1861.644891     1817.988410     1817.978299  1.928457 -3.393643 19.358637
   scf:  567     1807.669902     1811.672455     1811.598352  0.769161 -3.508441 16.082049
   scf:  568     2863.570721     2128.032397     2127.940498  5.721036 -2.207171 89.316909
   scf:  569     1868.153999     1806.609034     1806.567997  6.709024 -3.544219 10.526988
   scf:  570     1802.280872     1803.964260     1803.944923  0.337986 -3.446217  4.805844
   scf:  571     1858.894745     1819.791067     1819.695121  2.657849 -2.883847 21.163207
   scf:  572     1797.983706     1805.576092     1805.492726  1.111378 -3.235970  7.597888
   scf:  573     1805.150882     1804.940372     1804.872612  0.478832 -3.236889  6.271932
   scf:  574     1805.874009     1803.986780     1803.981016  0.831642 -3.273111  1.108131
   scf:  575     1812.713842     1806.247646     1806.197542  0.514344 -3.289451  8.202900
   scf:  576     1803.344042     1804.622068     1804.580780  0.165311 -3.305245  6.002087
   scf:  577     1825.617623     1809.145096     1809.047540  1.639259 -3.091423 12.438005
   scf:  578     1804.779083     1803.573485     1803.520090  0.938904 -3.293376  2.778240
   scf:  579     1818.910005     1808.096469     1808.072225  1.304897 -3.277366  9.764844
   scf:  580     1844.692252     1813.874131     1813.779119  2.807400 -3.073737 16.696555
   scf:  581     1811.567877     1811.356338     1811.250290  0.503896 -3.132712 12.701407
   scf:  582     1932.579520     1837.943317     1837.896277  2.232515 -2.832339 28.309567
   scf:  583     1840.225183     1817.110087     1817.103601  1.338072 -3.345840 14.631592
   scf:  584     3206.198853     2238.444003     2238.387734  6.035639 -1.757929103.129695
   scf:  585     2052.469321     1840.662762     1840.624481  6.973301 -2.921223 29.389900
   scf:  586     1871.086294     1816.068978     1816.012997  1.360284 -3.081695 21.419459
   scf:  587     1895.043076     1840.078678     1839.977317  2.095509 -2.715493 29.298866
   scf:  588     1875.411205     1815.836049     1815.805717  3.090989 -3.336490 17.876732
   scf:  589     1814.968658     1812.793258     1812.744830  1.015793 -3.444340 14.742457
   scf:  590     2843.220746     2123.403687     2123.294174  6.563905 -2.142045 88.743609
   scf:  591     1817.751918     1806.861588     1806.829002  5.790009 -3.382300 10.327786
   scf:  592     1874.189419     1823.779388     1823.759230  1.334396 -3.178451 22.098186
   scf:  593     2242.061871     1932.073980     1931.940419  4.102552 -2.457289 56.961917
   scf:  594     1779.959095     1834.222534     1834.126785  1.544280 -2.581797 26.076207
   scf:  595     1880.952259     1818.979005     1818.973058  2.510450 -3.212679 20.524528
   scf:  596     1813.356864     1815.392908     1815.323551  0.501304 -3.366089 18.313507
   scf:  597     3270.540990     2252.943360     2252.894466  6.544263 -1.893969104.645511
   scf:  598     1934.693026     1813.122059     1813.062701  5.951057 -3.534018 15.017430
   scf:  599     1878.969498     1830.686591     1830.662855  1.367281 -3.172809 24.883434
   scf:  600     3242.234173     2246.596872     2246.545530  7.190304 -1.893169103.866724
   scf:  601     1684.415426     1835.001852     1834.904614  4.449072 -2.692596 25.003985
   scf:  602     1870.863145     1817.021332     1817.004090  2.194234 -3.377809 19.039043
   scf:  603     1812.651303     1812.974734     1812.897006  0.834828 -3.467648 16.403081
   scf:  604     2857.802095     2125.153761     2125.050761  6.261486 -2.179358 89.027502
   scf:  605     1866.182070     1808.308457     1808.251790  6.006118 -3.512842  9.502075
   scf:  606     1871.896415     1825.757753     1825.738139  1.334595 -3.201990 22.922078
   scf:  607     2959.854796     2160.536813     2160.451412  7.026001 -1.988909 93.845995
   scf:  608     1813.435171     1964.369030     1964.252305  3.167257 -2.354114 63.144889
   scf:  609     1977.640492     1828.318088     1828.312195  5.189274 -2.978443 28.256270
   scf:  610     1822.997580     1823.310227     1823.246168  0.593113 -3.157944 24.688273
   scf:  611     3112.073735     2192.081926     2192.008482  7.896248 -1.938802 96.730768
   scf:  612     1980.700749     1821.851150     1821.845648  7.294557 -3.473425 20.552279
   scf:  613     1907.592428     1841.243554     1841.195720  1.442726 -3.029474 28.821721
   scf:  614     2933.130593     2137.851256     2137.757040  7.193449 -2.266224 89.846601
   scf:  615     1907.428846     1821.254484     1821.234644  5.688481 -3.302440 19.695007
   scf:  616     1829.167648     1815.456445     1815.370144  1.084812 -3.438789 18.610644
   scf:  617     3181.101543     2224.444266     2224.382051  7.537641 -2.186649100.653095
   scf:  618     1912.518695     1810.937507     1810.867361  6.898061 -3.575244 13.410720
   scf:  619     1866.396384     1825.753774     1825.740097  1.419535 -3.257899 22.563535
   scf:  620     3134.590062     2215.651813     2215.587041  7.308700 -1.915617100.428109
   scf:  621     1694.303421     1889.186052     1889.068773  4.034390 -2.509250 45.418199
   scf:  622     1913.506353     1819.766436     1819.731001  3.275112 -3.269268 22.153316
   scf:  623     1813.331590     1816.328811     1816.277120  0.585716 -3.461539 19.692808
   scf:  624     3702.240987     2390.060377     2390.059218  8.561172 -2.342063117.590505
   scf:  625     1916.586915     1810.684553     1810.656273  9.476307 -3.557297 14.025519
   scf:  626     1847.742285     1813.213768     1813.114411  2.725898 -3.171204 14.040307
   scf:  627     1812.989686     1805.462369     1805.426011  1.717382 -3.477025  6.714365
   scf:  628     1835.568813     1814.037425     1814.029275  1.217491 -3.310021 15.849832
   scf:  629     2657.200748     2071.202211     2071.094273  6.216740 -2.303655 81.605884
   scf:  630     1963.560958     2014.499364     2014.404389  1.280609 -2.286500 72.696696
   scf:  631     2054.462164     1841.193441     1841.189809  6.538674 -2.504601 34.859896
   scf:  632     1826.184589     1829.166983     1829.113327  0.609933 -2.832578 28.367796
   scf:  633     3066.899875     2172.382134     2172.305768  8.471780 -2.054173 92.840240
   scf:  634     1996.975834     1825.300499     1825.299615  7.944022 -3.352358 23.190740
[...]
   scf:  813     1702.508215     1825.155063     1825.051440  4.354952 -2.858703 20.485091
   scf:  814     1860.731751     1814.114952     1814.044445  2.063451 -3.381565 16.829612
   scf:  815     1805.232411     1808.129655     1808.063998  0.583987 -3.524080 12.021152
   scf:  816     2028.131982     1868.780001     1868.641689  3.374353 -2.527941 35.584109
   scf:  817     1800.884992     1803.630570     1803.607171  3.697810 -3.390301  2.995204
   scf:  818     1809.751898     1805.109291     1805.079735  0.561257 -3.236814  7.108353
   scf:  819     1805.106788     1804.330260     1804.294371  0.306110 -3.324470  5.090257
   scf:  820     1872.508033     1823.591088     1823.503788  2.481649 -2.767598 23.083651
   scf:  821     1807.632703     1803.643794     1803.600331  1.966193 -3.331126  2.765302
   scf:  822     1812.991043     1806.635669     1806.615774  0.943660 -3.304729  8.242141
   scf:  823     1891.277972     1828.504817     1828.412831  3.272543 -2.710585 25.864606
   scf:  824     1809.566092     1817.565873     1817.460317  0.729854 -2.942464 18.568486
   scf:  825     1946.919053     1840.293403     1840.236887  2.487957 -2.824401 29.227437
   scf:  826     1852.822081     1820.441433     1820.440728  1.474056 -3.305158 15.611277
   scf:  827     3166.609276     2224.249599     2224.192961  6.449827 -1.762859101.393982
   scf:  828     2061.996108     1841.634508     1841.589454  7.096437 -2.913760 29.380009
   scf:  829     1878.361230     1823.477191     1823.466948  1.618195 -3.194379 19.711177
   scf:  830     2971.104188     2173.634422     2173.562138  5.612005 -1.953009 95.062282
   scf:  831     1968.799156     1817.123352     1817.053945  6.964504 -3.371654 19.897333
   scf:  832     1818.317948     1815.783983     1815.740251  0.622501 -3.549517 17.373056
   scf:  833     2986.437069     2164.063613     2163.991655  6.988731 -2.254080 93.257792
   scf:  834     1998.479932     1832.198328     1832.177851  7.887411 -3.185595 25.434646
   scf:  835     1940.182765     1833.714591     1833.620739  2.898192 -2.734410 24.219284
   scf:  836     1864.785465     1820.762915     1820.754131  1.891164 -3.393600 14.749390
   scf:  837     1830.329944     1816.353601     1816.270040  1.118226 -3.404874 18.010340
   scf:  838     2937.081615     2147.094631     2147.018602  6.905872 -2.182500 91.407070
   scf:  839     1893.540979     1811.764541     1811.703843  6.082208 -3.505556 11.586631
   scf:  840     1892.843108     1832.294643     1832.263309  1.267991 -3.145718 25.982801
   scf:  841     3185.950889     2229.295934     2229.235415  7.026163 -1.901018101.987675
   scf:  842     1693.035582     1890.516541     1890.386296  4.279791 -2.514227 45.194010
   scf:  843     1918.678983     1821.662458     1821.644600  3.400100 -3.231733 23.470949
   scf:  844     1817.369725     1818.328250     1818.255032  0.509694 -3.382670 21.102282
   scf:  845     3223.852236     2233.568632     2233.515396  7.148068 -1.911479102.139841
   scf:  846     1959.224198     1817.045397     1817.011597  6.435826 -3.562975 17.513290
   scf:  847     1895.501497     1836.487510     1836.451619  1.367244 -3.123255 27.274329
   scf:  848     3117.541090     2201.890952     2201.828610  7.199368 -1.986107 98.438737
   scf:  849     1747.191242     1818.133531     1818.030488  5.352704 -3.056490 21.490820
   scf:  850     1848.783962     1815.947606     1815.923038  1.277842 -3.409510 17.723406
   scf:  851     1804.420220     1808.194136     1808.146553  1.039300 -3.513764 12.236895
   scf:  852     2555.953806     2036.191969     2036.074366  4.829773 -2.347252 76.185147
   scf:  853     1797.461925     1803.897930     1803.870747  4.731503 -3.407883  4.369774
   scf:  854     1815.815435     1806.764708     1806.750583  0.793387 -3.289671  9.428142
   scf:  855     1822.230681     1808.142291     1808.041616  1.889810 -3.195160 11.281468
   scf:  856     1812.452366     1806.133407     1806.074452  0.669760 -3.277691  7.624419
   scf:  857     1866.570187     1822.326065     1822.309085  1.761603 -3.187207 20.690216
   scf:  858     2769.653061     2098.820567     2098.736323  6.657376 -2.310714 85.566989
   scf:  859     1726.068499     1826.580974     1826.494071  4.011744 -2.712195 21.924417
   scf:  860     1869.145924     1816.700462     1816.673074  2.014357 -3.266899 18.778759
   scf:  861     1808.221194     1812.133659     1812.063166  0.457727 -3.433973 16.001479
   scf:  862     2920.181581     2145.182349     2145.088895  5.783130 -2.105248 91.658176
   scf:  863     1879.085650     1807.344030     1807.290882  6.454896 -3.522941 11.545688
   scf:  864     1802.569339     1804.513144     1804.492139  0.437222 -3.452720  6.285056
   scf:  865     1882.738187     1826.564002     1826.465898  2.978740 -2.709513 25.017075
   scf:  866     1796.711033     1804.370495     1804.303372  1.464986 -3.271715  5.001108
   scf:  867     1805.146152     1803.669419     1803.630821  0.703348 -3.283653  2.902562
   scf:  868     1807.376137     1804.312535     1804.234996  0.863450 -3.262898  4.400664
   scf:  869     1807.285337     1804.248823     1804.201293  0.760081 -3.324943  5.099741
   scf:  870     1821.904135     1810.536295     1810.521183  0.933490 -3.281851 12.594925
   scf:  871     2456.369378     2007.232963     2007.118050  5.077551 -2.338628 71.688983
   scf:  872     1746.250407     1841.757746     1841.666630  2.097350 -2.529554 31.018397
   scf:  873     1905.521615     1822.956495     1822.891099  2.575125 -3.143679 18.793587
   scf:  874     1839.889793     1818.192517     1818.185096  1.184730 -3.365100 14.493866
   scf:  875     3162.996033     2225.263478     2225.205881  6.055561 -1.838733101.416339
   scf:  876     2050.269034     1841.279344     1841.228093  7.049088 -2.971661 29.633848
   scf:  877     1883.817263     1817.904884     1817.817080  1.515109 -3.016242 22.233430
   scf:  878     1803.561405     1808.428266     1808.406395  0.937450 -3.349867 13.458759
   scf:  879     2418.743876     2008.044638     2007.946312  4.202891 -2.255538 70.447256
   scf:  880     1875.617123     1813.540820     1813.519906  5.380139 -3.289941 14.897829
   scf:  881     2075.188357     1881.327815     1881.204117  3.375874 -2.452332 44.247609
   scf:  882     1798.390219     1808.500405     1808.421641  1.317018 -3.191192 12.581822
   scf:  883     1901.971999     1830.241384     1830.199599  1.790393 -3.118699 24.711352
   scf:  884     1872.609751     1817.229342     1817.149295  2.893461 -3.027292 17.784247
   scf:  885     1855.874550     1817.237048     1817.224565  1.536143 -3.317629 12.497761
   scf:  886     1885.739045     1829.661551     1829.634670  1.470397 -3.149422 24.711684
   scf:  887     3405.906410     2301.093514     2301.058911  6.982893 -1.747538110.060393
   scf:  888     1656.953186     1860.028423     1859.937646  4.409561 -2.566490 35.477688
   scf:  889     1893.376962     1818.682001     1818.661023  2.725611 -3.293786 20.833439
   scf:  890     1812.090642     1815.211368     1815.147673  0.556818 -3.446846 18.732623
   scf:  891     3375.432379     2286.351794     2286.308221  6.587490 -1.972426108.181672
   scf:  892     1922.410687     1810.062673     1809.991071  6.683277 -3.554331 14.708765
   scf:  893     1803.666750     1806.404281     1806.373774  0.811766 -3.527616 10.077851
   scf:  894     2052.707951     1877.740485     1877.623634  3.627326 -2.455090 44.050071
   scf:  895     1807.957238     1803.632282     1803.606816  2.786561 -3.407620  2.546970
   scf:  896     1806.576860     1804.263481     1804.237347  0.398789 -3.297689  5.059185
   scf:  897     1845.495264     1816.123625     1816.026915  2.314067 -3.019364 18.389002
   scf:  898     1813.644272     1814.619065     1814.518434  0.323577 -3.069289 16.707901
   scf:  899     1955.656635     1844.337660     1844.276330  2.425061 -2.687381 31.057776
   scf:  900     1851.187899     1820.231047     1820.230398  1.437781 -3.307418 15.949754
   scf:  901     3074.888547     2194.353593     2194.288407  6.460140 -1.797127 97.670020
   scf:  902     2058.692607     1841.681108     1841.640207  7.039632 -2.891352 29.423230
   scf:  903     1879.584766     1824.148339     1824.140076  1.626497 -3.200770 19.506605
   scf:  904     2979.179476     2174.846573     2174.773190  5.673325 -1.949635 95.161578
   scf:  905     1971.519251     1817.530689     1817.456880  7.013936 -3.365985 20.172575
   scf:  906     1820.837911     1816.477669     1816.440240  0.665287 -3.548990 17.361287
   scf:  907     2930.366125     2146.211701     2146.126271  6.795764 -2.318034 90.988565
   scf:  908     2009.921313     1835.122629     1835.096280  7.583917 -3.132452 26.831767
   scf:  909     1922.018145     1828.112480     1828.014433  2.621331 -2.839965 22.262961
   scf:  910     1858.020835     1820.061808     1820.049191  1.585030 -3.409963 14.688335
   scf:  911     1818.992702     1814.191918     1814.113812  0.853257 -3.440966 17.728385
   scf:  912     2911.988384     2139.719431     2139.642462  6.607677 -2.288320 90.380637
   scf:  913     1889.962281     1809.209289     1809.141446  6.449642 -3.563848 12.523229
   scf:  914     1845.686594     1819.145080     1819.136701  1.388123 -3.351358 18.561531
   scf:  915     2991.129433     2172.818347     2172.741885  7.423724 -1.970906 95.273997
   scf:  916     1690.357109     1855.816738     1855.704222  4.024905 -2.569331 35.344716
   scf:  917     1888.597080     1816.790432     1816.743345  2.530279 -3.313415 19.173278
   scf:  918     1812.105821     1813.626937     1813.571508  0.613766 -3.501754 16.695053
   scf:  919     3606.006567     2364.495077     2364.484429  7.380523 -2.288566114.319149
   scf:  920     1928.809506     1816.263631     1816.255740  9.048219 -3.448775 15.751533
   scf:  921     2157.008450     1904.491429     1904.364004  4.235636 -2.521698 49.855920
   scf:  922     1803.420105     1808.393809     1808.353521  2.555455 -3.307011 13.493023
   scf:  923     1873.173310     1822.071581     1822.044777  1.273549 -3.235385 20.561465
   scf:  924     1912.820788     1829.918771     1829.826016  3.425550 -2.743558 25.936438
   scf:  925     1839.669349     1812.512013     1812.477943  1.563359 -3.273292 12.536091
   scf:  926     1891.805619     1829.867983     1829.833848  1.583780 -3.140224 24.661540
   scf:  927     3093.457643     2198.613765     2198.549338  7.074184 -1.865751 98.471354
   scf:  928     1712.178592     1825.286238     1825.184769  4.672082 -2.797640 20.719436
   scf:  929     1864.708353     1817.263921     1817.253202  1.999970 -3.331932 19.024858
   scf:  930     1809.457941     1812.528767     1812.454012  0.635463 -3.443747 16.345002
   scf:  931     2913.407785     2142.575670     2142.477011  5.964337 -2.085740 91.419072
   scf:  932     1879.784223     1807.927623     1807.865185  6.162203 -3.537735 11.413576
   scf:  933     1829.027610     1813.604869     1813.594928  1.260057 -3.392862 14.498545
   scf:  934     2901.091286     2147.415385     2147.321737  7.414836 -2.022131 92.209862
   scf:  935     1697.236362     1834.626233     1834.530530  4.083335 -2.638315 27.330543
   scf:  936     1887.094663     1818.998790     1818.930450  2.554485 -3.276036 16.697146
   scf:  937     1830.574154     1814.930987     1814.898617  1.295545 -3.419936 13.162184
   scf:  938     3183.152206     2235.048394     2234.993315  5.838420 -1.880980102.545616
   scf:  939     2033.828846     1838.711176     1838.665153  7.018063 -3.034912 28.797232
   scf:  940     1983.430456     1844.552595     1844.443250  2.295280 -2.649391 28.614453
   scf:  941     1878.144797     1824.219554     1824.219028  2.273381 -3.321654 16.001221
   scf:  942     1821.010535     1817.388143     1817.338421  0.775938 -3.360815 20.263766
   scf:  943     2807.692966     2101.729595     2101.644949  7.022791 -2.590454 84.648500
   scf:  944     1915.799446     1811.796933     1811.722963  6.628734 -3.570489 16.242495
   scf:  945     1815.353394     1811.121376     1811.107991  1.496855 -3.522482 12.767585
   scf:  946     2840.401283     2126.533116     2126.433286  7.364823 -2.175849 89.329916
   scf:  947     1739.704505     1810.949713     1810.852680  4.746115 -3.213830 12.066059
   scf:  948     1883.611564     1823.285409     1823.264884  1.813233 -3.225655 21.456418
   scf:  949     1829.401708     1811.627888     1811.588049  1.578321 -3.380407 10.385918
   scf:  950     3311.505956     2283.001615     2282.951651  5.522052 -1.763876108.243043
   scf:  951     2029.721621     1836.741049     1836.701695  6.843069 -3.015128 28.076955
   scf:  952     2005.859254     1851.512287     1851.404624  2.329952 -2.591120 32.093746
   scf:  953     1881.788302     1824.358513     1824.358111  2.220530 -3.299337 15.778984
   scf:  954     1828.261488     1818.519010     1818.452239  0.902570 -3.308968 20.762896
   scf:  955     2822.612147     2105.710277     2105.618096  7.148046 -2.519365 85.588354
   scf:  956     1935.631322     1815.911870     1815.871308  6.424563 -3.557861 16.885430
   scf:  957     1893.756410     1835.744263     1835.716799  1.420120 -3.115142 27.199593
   scf:  958     3203.592467     2231.336412     2231.281307  7.159842 -1.943075101.978774
   scf:  959     1701.831935     1829.085762     1828.983091  4.586766 -2.818577 22.618405
   scf:  960     1864.679491     1817.311428     1817.297191  2.051124 -3.405005 19.061585
   scf:  961     1809.878080     1811.750167     1811.675429  0.877357 -3.497769 15.938572
   scf:  962     2817.498688     2113.663408     2113.561230  5.915721 -2.258003 87.290370
   scf:  963     1856.757762     1806.871770     1806.824420  6.123430 -3.526939  8.879460
   scf:  964     1847.002982     1818.099534     1818.089924  1.305813 -3.301179 18.427458
   scf:  965     2860.142384     2133.061844     2132.963459  7.075582 -2.120523 90.204964
   scf:  966     1810.277884     1951.490954     1951.363754  3.081528 -2.362806 60.816787
   scf:  967     1961.475425     1825.084881     1825.072605  4.678544 -3.041459 25.974090
   scf:  968     1816.445469     1820.137067     1820.101548  0.416887 -3.275905 22.773725
   scf:  969     3750.698236     2399.374665     2399.374319  9.532895 -2.178488118.123795
   scf:  970     1977.281127     1814.836095     1814.774126  8.496575 -3.559255 18.448990
   scf:  971     1831.935755     1817.357173     1817.351484  1.496195 -3.472228 16.222737
   scf:  972     2939.963066     2154.170332     2154.093226  7.626571 -2.047654 92.735083
   scf:  973     1724.725805     1816.690603     1816.587031  4.622721 -3.096320 16.031318
   scf:  974     1871.653454     1818.146468     1818.106640  2.369577 -3.335744 17.017554
   scf:  975     1821.492669     1809.590392     1809.537072  1.591438 -3.421895  9.082629
   scf:  976     2959.747456     2172.444041     2172.350227  5.805107 -1.938075 95.259923
   scf:  977     1990.697212     1831.949518     1831.916055  7.007229 -3.103358 26.098507
   scf:  978     2282.959240     1937.901367     1937.795171  3.049067 -2.387307 57.267571
   scf:  979     1889.504640     1822.222516     1822.216303  2.032434 -3.225236 16.650712
   scf:  980     1866.029218     1825.414574     1825.332623  1.480230 -3.238929 21.118697
   scf:  981     2961.521926     2148.665843     2148.586103  7.461770 -2.199502 91.474215
   scf:  982     1948.771820     1821.096637     1821.086716  6.336881 -3.431841 15.126531
   scf:  983     1906.278716     1836.985701     1836.934270  1.543454 -3.160790 27.075764
   scf:  984     3080.842298     2187.920585     2187.851686  7.208315 -1.978961 96.746298
   scf:  985     1855.960246     1815.974779     1815.953185  6.037495 -3.248529 19.839080
   scf:  986     1827.067450     1813.575695     1813.511613  1.319914 -3.403045 16.473877
   scf:  987     2971.285552     2159.555318     2159.488479  7.020925 -2.246644 92.676216
   scf:  988     1888.345025     1808.079815     1808.024518  7.425078 -3.531729 12.402367
   scf:  989     1802.142544     1804.100188     1804.083217  0.536796 -3.467458  4.878904
   scf:  990     1849.459636     1816.853061     1816.758760  2.798942 -2.971991 19.160271
   scf:  991     1802.540238     1803.478687     1803.441817  1.986648 -3.294192  1.873889
   scf:  992     1842.860231     1816.673114     1816.588523  1.847723 -2.976794 18.783233
   scf:  993     1811.808215     1814.155576     1814.065105  0.209154 -3.065767 16.766967
   scf:  994     1916.382673     1833.125270     1833.099833  2.310675 -2.947513 26.216236
   scf:  995     1847.726893     1818.799840     1818.796769  1.434007 -3.323847 14.729786
   scf:  996     3277.216679     2260.904577     2260.857773  6.325166 -1.729664105.859219
   scf:  997     2064.377345     1842.232083     1842.189719  7.117889 -2.880198 29.910965
   scf:  998     1871.877371     1819.104674     1819.077117  1.490669 -3.139511 20.724037
   scf:  999     2858.535462     2147.785873     2147.717965  5.505381 -2.076553 91.836753
   scf: 1000     1957.868099     1816.315168     1816.272346  6.731704 -3.359444 18.649464
SCF_NOT_CONV: SCF did not converge in maximum number of steps (required).
Geom step, scf iteration, dmax:    0  1000    1.370700

timer: Elapsed wall time (sec) =    1165.608
timer: CPU execution times (sec):

Routine            Calls   Time/call    Tot.time        %
siesta                 1    1870.219    1870.219   100.00
Setup                  1       0.188       0.188     0.01
bands                  1       0.000       0.000     0.00
KSV_init               1       0.000       0.000     0.00
IterGeom               1    1870.031    1870.031    99.99
state_init             1       1.109       1.109     0.06
hsparse                1       0.047       0.047     0.00
overlap                1       1.062       1.062     0.06
Setup_H0               1       9.969       9.969     0.53
naefs                  1       0.000       0.000     0.00
MolMec                 1       0.000       0.000     0.00
kinefsm                1       1.047       1.047     0.06
nlefsm                 1       6.219       6.219     0.33
DHSCF_Init             1       2.703       2.703     0.14
DHSCF1                 1       0.047       0.047     0.00
INITMESH               1       0.000       0.000     0.00
DHSCF2                 1       2.656       2.656     0.14
REMESH                 1       0.547       0.547     0.03
REORD               2005       0.001       1.156     0.06
PHION                  1       1.844       1.844     0.10
COMM_BSC            4005       0.000       1.719     0.09
POISON              1002       0.039      39.500     2.11
fft                 2004       0.018      35.484     1.90
IterSCF             1000       1.859    1858.953    99.40
setup_H             1001       1.773    1774.719    94.89
DHSCF               1001       1.772    1773.719    94.84
DHSCF3              1001       1.772    1773.719    94.84
rhoofd              1001       1.273    1274.688    68.16
XC                  1001       0.043      42.781     2.29
GXC-CellXC          1001       0.042      41.812     2.24
cellXC              1001       0.042      41.812     2.24
vmat                1001       0.406     406.781    21.75
compute_dm          1000       0.083      82.781     4.43
diagon              1000       0.082      81.703     4.37
r-eigvec            1000       0.024      24.406     1.30
r-buildHS           1000       0.000       0.094     0.01
rdiag               1000       0.024      24.312     1.30
rdiag1              1000       0.001       1.094     0.06
rdiag2              1000       0.004       4.062     0.22
rdiag3              1000       0.018      18.359     0.98
rdiag4              1000       0.001       0.609     0.03
r-buildD            1000       0.056      56.422     3.02
MIXER               1000       0.000       0.172     0.01
  
ABNORMAL_TERMINATION
Stopping Program from Node:    0
