Siesta Version  : 4.1.5
Architecture    : unknown
Compiler version: GNU Fortran (GCC) 9.4.0
Compiler flags  : mpifort -march=nocona -mtune=haswell -ftree-vectorize -fPIC -fstack-protectorr-strong -fno-plt -O2 -ffunction-sections -pipe
PP flags        : -DFC_HAVE_ABORT -DCDF -DMPI -DSIESTA__MRRR -DNCDF -DNCDF_4
Libraries       : libncdf.a libfdict.a -lscalapack -llapack -lblas -lnetcdff -lnetcdf -lhdf5_hll -lhdf5 -lz
PARALLEL version
NetCDF support
NetCDF-4 support

* Running in serial mode with MPI
>> Start of run:  29-MAY-2023  18:16:14

                           ***********************       
                           *  WELCOME TO SIESTA  *       
                           ***********************       

reinit: Reading from PdSe2.fdf

reinit: -----------------------------------------------------------------------
reinit: System Name: 
reinit: -----------------------------------------------------------------------
reinit: System Label: siesta
reinit: -----------------------------------------------------------------------

initatom: Reading input for the pseudopotentials and atomic orbitals ----------
Species number:   1 Atomic number:   46 Label: Pd
Species number:   2 Atomic number:   34 Label: Se

Ground state valence configuration:   5s01  4d09
Reading pseudopotential information in formatted form from Pd.psf

Valence configuration for pseudopotential generation:
5s( 1.00) rc: 2.58
5p( 0.00) rc: 2.71
4d( 9.00) rc: 2.42
4f( 0.00) rc: 2.42
Ground state valence configuration:   4s02  4p04
Reading pseudopotential information in formatted form from Se.psf

Valence configuration for pseudopotential generation:
4s( 2.00) rc: 1.94
4p( 4.00) rc: 2.11
4d( 0.00) rc: 1.94
4f( 0.00) rc: 2.49
For Pd, standard SIESTA heuristics set lmxkb to 3
 (one more than the basis l, including polarization orbitals).
Use PS.lmax or PS.KBprojectors blocks to override.
Pd: nkbl increased for l=1 due to the presence of a polarization orbital
For Se, standard SIESTA heuristics set lmxkb to 3
 (one more than the basis l, including polarization orbitals).
Use PS.lmax or PS.KBprojectors blocks to override.

<basis_specs>
===============================================================================
Pd                   Z=  46    Mass=  106.42        Charge= 0.17977+309
Lmxo=2 Lmxkb= 3    BasisType=split      Semic=F
L=0  Nsemic=0  Cnfigmx=5
          i=1  nzeta=2  polorb=1  (5s)
            splnorm:   0.15000    
               vcte:    0.0000    
               rinn:    0.0000    
               qcoe:    0.0000    
               qyuk:    0.0000    
               qwid:   0.10000E-01
                rcs:    0.0000      0.0000    
            lambdas:    1.0000      1.0000    
L=1  Nsemic=0  Cnfigmx=5
L=2  Nsemic=0  Cnfigmx=4
          i=1  nzeta=2  polorb=0  (4d)
            splnorm:   0.15000    
               vcte:    0.0000    
               rinn:    0.0000    
               qcoe:    0.0000    
               qyuk:    0.0000    
               qwid:   0.10000E-01
                rcs:    0.0000      0.0000    
            lambdas:    1.0000      1.0000    
-------------------------------------------------------------------------------
L=0  Nkbl=1  erefs: 0.17977+309
L=1  Nkbl=2  erefs: 0.17977+309 0.17977+309
L=2  Nkbl=1  erefs: 0.17977+309
L=3  Nkbl=1  erefs: 0.17977+309
===============================================================================
</basis_specs>

atom: Called for Pd                    (Z =  46)

read_vps: Pseudopotential generation method:
read_vps: ATM3      Troullier-Martins                       
Valence charge for ps generation:   10.00000

read_vps: Pseudopotential includes a core correction:

xc_check: Exchange-correlation functional:
xc_check: Ceperley-Alder
xc_check: WARNING: Pseudopotential generated with Unknown atomic XC code functional
V l=0 = -2*Zval/r beyond r=  2.6087
V l=1 = -2*Zval/r beyond r=  2.8830
V l=2 = -2*Zval/r beyond r=  2.5763
V l=3 = -2*Zval/r beyond r=  2.5443
All V_l potentials equal beyond r=  2.6747
This should be close to max(r_c) in ps generation
All pots = -2*Zval/r beyond r=  2.8830

VLOCAL1: 99.0% of the norm of Vloc inside      6.068 Ry
VLOCAL1: 99.9% of the norm of Vloc inside     13.828 Ry
atom: Maximum radius for 4*pi*r*r*local-pseudopot. charge    3.22632
atom: Maximum radius for r*vlocal+2*Zval:    2.84721
GHOST: No ghost state for L =  0
KBgen: More than one KB projector for l=  1
KBgen: ghost states analysis will be not performed
GHOST: No ghost state for L =  2
GHOST: No ghost state for L =  3

KBgen: Kleinman-Bylander projectors: 
   l= 0   rc=  3.146660   el= -0.310910   Ekb=  3.310588   kbcos=  0.260099
   l= 1   rc=  3.266902   el= -0.070420   Ekb=  1.770254   kbcos=  0.225385
   l= 1   rc=  3.610491   el=  0.001442   Ekb=  1.788459   kbcos=  0.003727
   l= 2   rc=  2.847210   el= -0.506616   Ekb= -7.135623   kbcos= -0.692581
   l= 3   rc=  3.226319   el=  0.003502   Ekb= -2.843940   kbcos= -0.013727

KBgen: Total number of Kleinman-Bylander projectors:   19
atom: -------------------------------------------------------------------------

atom: SANKEY-TYPE ORBITALS:
atom: Selected multiple-zeta basis: split     

SPLIT: Orbitals with angular momentum L= 0

SPLIT: Basis orbitals for state 5s

SPLIT: PAO cut-off radius determined from an
SPLIT: energy shift=  0.020000 Ry

   izeta = 1
                 lambda =    1.000000
                     rc =    6.830178
                 energy =   -0.290789
                kinetic =    0.302169
    potential(screened) =   -0.592958
       potential(ionic) =   -6.914402

   izeta = 2
                 rmatch =    6.578787
              splitnorm =    0.150000
                 energy =   -0.243246
                kinetic =    0.454593
    potential(screened) =   -0.697839
       potential(ionic) =   -7.375591

SPLIT: Orbitals with angular momentum L= 2

SPLIT: Basis orbitals for state 4d

SPLIT: PAO cut-off radius determined from an
SPLIT: energy shift=  0.020000 Ry

   izeta = 1
                 lambda =    1.000000
                     rc =    4.142691
                 energy =   -0.487238
                kinetic =    5.746583
    potential(screened) =   -6.233820
       potential(ionic) =  -16.472664

   izeta = 2
                 rmatch =    2.641477
              splitnorm =    0.150000
                 energy =   -0.163453
                kinetic =    7.915444
    potential(screened) =   -8.078897
       potential(ionic) =  -19.123409

POLgen: Perturbative polarization orbital with L=  1

POLgen: Polarization orbital for state 5s

   izeta = 1
                     rc =    6.830178
                 energy =   -0.020258
                kinetic =    0.548679
    potential(screened) =   -0.568936
       potential(ionic) =   -6.504680
atom: Total number of Sankey-type orbitals: 15

atm_pop: Valence configuration (for local Pseudopot. screening):
 5s( 1.00)                                                            
 5p( 0.00)                                                            
 4d( 9.00)                                                            
Vna: chval, zval:   10.00000  10.00000

Vna:  Cut-off radius for the neutral-atom potential:   6.830178
comcore: Pseudo-core radius Rcore=  4.091229

atom: _________________________________________________________________________

<basis_specs>
===============================================================================
Se                   Z=  34    Mass=  78.960        Charge= 0.17977+309
Lmxo=1 Lmxkb= 3    BasisType=split      Semic=F
L=0  Nsemic=0  Cnfigmx=4
          i=1  nzeta=2  polorb=0  (4s)
            splnorm:   0.15000    
               vcte:    0.0000    
               rinn:    0.0000    
               qcoe:    0.0000    
               qyuk:    0.0000    
               qwid:   0.10000E-01
                rcs:    0.0000      0.0000    
            lambdas:    1.0000      1.0000    
L=1  Nsemic=0  Cnfigmx=4
          i=1  nzeta=2  polorb=1  (4p)
            splnorm:   0.15000    
               vcte:    0.0000    
               rinn:    0.0000    
               qcoe:    0.0000    
               qyuk:    0.0000    
               qwid:   0.10000E-01
                rcs:    0.0000      0.0000    
            lambdas:    1.0000      1.0000    
-------------------------------------------------------------------------------
L=0  Nkbl=1  erefs: 0.17977+309
L=1  Nkbl=1  erefs: 0.17977+309
L=2  Nkbl=1  erefs: 0.17977+309
L=3  Nkbl=1  erefs: 0.17977+309
===============================================================================
</basis_specs>

atom: Called for Se                    (Z =  34)

read_vps: Pseudopotential generation method:
read_vps: ATM3      Troullier-Martins                       
Valence charge for ps generation:    6.00000

read_vps: Pseudopotential includes a core correction:

xc_check: Exchange-correlation functional:
xc_check: Ceperley-Alder
xc_check: WARNING: Pseudopotential generated with Unknown atomic XC code functional
V l=0 = -2*Zval/r beyond r=  2.5821
V l=1 = -2*Zval/r beyond r=  2.5821
V l=2 = -2*Zval/r beyond r=  2.5821
V l=3 = -2*Zval/r beyond r=  2.6146
All V_l potentials equal beyond r=  2.4257
This should be close to max(r_c) in ps generation
All pots = -2*Zval/r beyond r=  2.6146

VLOCAL1: 99.0% of the norm of Vloc inside      7.377 Ry
VLOCAL1: 99.9% of the norm of Vloc inside     16.813 Ry
atom: Maximum radius for 4*pi*r*r*local-pseudopot. charge    2.92594
atom: Maximum radius for r*vlocal+2*Zval:    2.55004
GHOST: No ghost state for L =  0
GHOST: No ghost state for L =  1
GHOST: No ghost state for L =  2
GHOST: No ghost state for L =  3

KBgen: Kleinman-Bylander projectors: 
   l= 0   rc=  2.748658   el= -1.217621   Ekb=  6.311136   kbcos=  0.274788
   l= 1   rc=  2.853693   el= -0.477026   Ekb=  2.746607   kbcos=  0.239605
   l= 2   rc=  2.962741   el=  0.002371   Ekb=  3.890608   kbcos=  0.028154
   l= 3   rc=  3.193497   el=  0.003486   Ekb= -0.844302   kbcos= -0.011371

KBgen: Total number of Kleinman-Bylander projectors:   16
atom: -------------------------------------------------------------------------

atom: SANKEY-TYPE ORBITALS:
atom: Selected multiple-zeta basis: split     

SPLIT: Orbitals with angular momentum L= 0

SPLIT: Basis orbitals for state 4s

SPLIT: PAO cut-off radius determined from an
SPLIT: energy shift=  0.020000 Ry

   izeta = 1
                 lambda =    1.000000
                     rc =    4.365020
                 energy =   -1.199864
                kinetic =    0.782779
    potential(screened) =   -1.982643
       potential(ionic) =   -6.491281

   izeta = 2
                 rmatch =    3.710326
              splitnorm =    0.150000
                 energy =   -1.059031
                kinetic =    1.206130
    potential(screened) =   -2.265161
       potential(ionic) =   -6.948397

SPLIT: Orbitals with angular momentum L= 1

SPLIT: Basis orbitals for state 4p

SPLIT: PAO cut-off radius determined from an
SPLIT: energy shift=  0.020000 Ry

   izeta = 1
                 lambda =    1.000000
                     rc =    5.331464
                 energy =   -0.456532
                kinetic =    1.200073
    potential(screened) =   -1.656606
       potential(ionic) =   -5.816413

   izeta = 2
                 rmatch =    4.204360
              splitnorm =    0.150000
                 energy =   -0.320917
                kinetic =    1.725638
    potential(screened) =   -2.046555
       potential(ionic) =   -6.523659

POLgen: Perturbative polarization orbital with L=  2

POLgen: Polarization orbital for state 4p

   izeta = 1
                     rc =    5.331464
                 energy =    0.538234
                kinetic =    1.839758
    potential(screened) =   -1.301525
       potential(ionic) =   -5.167713
atom: Total number of Sankey-type orbitals: 13

atm_pop: Valence configuration (for local Pseudopot. screening):
 4s( 2.00)                                                            
 4p( 4.00)                                                            
Vna: chval, zval:    6.00000   6.00000

Vna:  Cut-off radius for the neutral-atom potential:   5.331464
comcore: Pseudo-core radius Rcore=  3.618716

atom: _________________________________________________________________________

prinput: Basis input ----------------------------------------------------------

PAO.BasisType split     

%block ChemicalSpeciesLabel
    1   46 Pd                      # Species index, atomic number, species label
    2   34 Se                      # Species index, atomic number, species label
%endblock ChemicalSpeciesLabel

%block PAO.Basis                 # Define Basis set
Pd                    2                    # Species label, number of l-shells
 n=5   0   2 P   1                   # n, l, Nzeta, Polarization, NzetaPol
   6.830      6.579   
   1.000      1.000   
 n=4   2   2                         # n, l, Nzeta 
   4.143      2.641   
   1.000      1.000   
Se                    2                    # Species label, number of l-shells
 n=4   0   2                         # n, l, Nzeta 
   4.365      3.710   
   1.000      1.000   
 n=4   1   2 P   1                   # n, l, Nzeta, Polarization, NzetaPol
   5.331      4.204   
   1.000      1.000   
%endblock PAO.Basis

prinput: ----------------------------------------------------------------------

Dumping basis to NetCDF file Pd.ion.nc
Dumping basis to NetCDF file Se.ion.nc
coor:   Atomic-coordinates input format  =     Cartesian coordinates
coor:                                          (in Angstroms)

siesta: Atomic coordinates (Bohr) and species
siesta:      0.00000   0.00000   0.00000  1        1
siesta:      5.44241   5.57469   0.00000  1        2
siesta:      0.00000   5.57469   7.26694  1        3
siesta:      5.44241  11.14939   7.26694  1        4
siesta:      6.53090   1.25594   1.27525  2        5
siesta:      1.30580   4.18647  -1.27525  2        6
siesta:      9.79634   6.69835   1.27524  2        7
siesta:      4.13623   9.62889  -1.27525  2        8
siesta:      1.30580   9.76117   5.99170  2        9
siesta:      6.53090   6.83064   8.54219  2       10
siesta:      9.79634   1.12365   8.54219  2       11
siesta:      4.13623   4.05400   5.99170  2       12

siesta: System type = bulk      

initatomlists: Number of atoms, orbitals, and projectors:     12   164   204

coxmol: Writing XMOL coordinates into file siesta.xyz                                                          

siesta: ******************** Simulation parameters ****************************
siesta:
siesta: The following are some of the parameters of the simulation.
siesta: A complete list of the parameters used, including default values,
siesta: can be found in file out.fdf
siesta:
redata: Spin configuration                          = none
redata: Number of spin components                   = 1
redata: Time-Reversal Symmetry                      = T
redata: Spin spiral                                 = F
redata: Long output                                 =   F
redata: Number of Atomic Species                    =        2
redata: Charge density info will appear in .RHO file
redata: Write Mulliken Pop.                         = NO
redata: Matel table size (NRTAB)                    =     1024
redata: Mesh Cutoff                                 =   300.0000 Ry
redata: Net charge of the system                    =     0.0000 |e|
redata: Min. number of SCF Iter                     =        0
redata: Max. number of SCF Iter                     =     1000
redata: SCF convergence failure will abort job
redata: SCF mix quantity                            = Hamiltonian
redata: Mix DM or H after convergence               =   F
redata: Recompute H after scf cycle                 =   F
redata: Mix DM in first SCF step                    =   T
redata: Write Pulay info on disk                    =   F
redata: New DM Occupancy tolerance                  = 0.000000000001
redata: No kicks to SCF
redata: DM Mixing Weight for Kicks                  =     0.5000
redata: Require Harris convergence for SCF          =   F
redata: Harris energy tolerance for SCF             =     0.000100 eV
redata: Require DM convergence for SCF              =   T
redata: DM tolerance for SCF                        =     0.000100
redata: Require EDM convergence for SCF             =   F
redata: EDM tolerance for SCF                       =     0.001000 eV
redata: Require H convergence for SCF               =   T
redata: Hamiltonian tolerance for SCF               =     0.001000 eV
redata: Require (free) Energy convergence for SCF   =   F
redata: (free) Energy tolerance for SCF             =     0.000100 eV
redata: Using Saved Data (generic)                  =   F
redata: Use continuation files for DM               =   F
redata: Neglect nonoverlap interactions             =   F
redata: Method of Calculation                       = Diagonalization
redata: Electronic Temperature                      =   299.9869 K
redata: Fix the spin of the system                  =   F
redata: Dynamics option                             = CG coord. optimization
redata: Variable cell                               =   F
redata: Use continuation files for CG               =   F
redata: Max atomic displ per move                   =     0.1058 Ang
redata: Maximum number of optimization moves        =     1000
redata: Force tolerance                             =     0.0100 eV/Ang
mix.SCF: Pulay mixing                            = Pulay
mix.SCF:    Variant                              = stable
mix.SCF:    History steps                        = 2
mix.SCF:    Linear mixing weight                 =     0.250000
mix.SCF:    Mixing weight                        =     0.250000
mix.SCF:    SVD condition                        = 0.1000E-07
redata: Save all siesta data in one NC              =   F
redata: ***********************************************************************

%block SCF.Mixers
  Pulay
%endblock SCF.Mixers

%block SCF.Mixer.Pulay
  # Mixing method
  method pulay
  variant stable

  # Mixing options
  weight 0.2500
  weight.linear 0.2500
  history 2
%endblock SCF.Mixer.Pulay

DM_history_depth set to one: no extrapolation allowed by default for geometry relaxation
Size of DM history Fstack: 1
Total number of electrons:    88.000000
Total ionic charge:    88.000000

* ProcessorY, Blocksize:    1  24


* Orbital distribution balance (max,min):   164   164

 Kpoints in:            1 . Kpoints trimmed:            1

siesta: k-grid: Number of k-points =     1
siesta: k-grid: Cutoff (effective) =     2.880 Ang
siesta: k-grid: Supercell and displacements
siesta: k-grid:    1   0   0      0.000
siesta: k-grid:    0   1   0      0.000
siesta: k-grid:    0   0   1      0.000

diag: Algorithm                                     = D&C
diag: Parallel over k                               =   F
diag: Use parallel 2D distribution                  =   F
diag: Parallel block-size                           = 24
diag: Parallel distribution                         =     1 x     1
diag: Used triangular part                          = Lower
diag: Absolute tolerance                            =  0.100E-15
diag: Orthogonalization factor                      =  0.100E-05
diag: Memory factor                                 =  1.0000


ts: **************************************************************
ts: Save H and S matrices                           =    T
ts: Save DM and EDM matrices                        =    F
ts: Only save the overlap matrix S                  =    F
ts: **************************************************************

************************ Begin: TS CHECKS AND WARNINGS ************************
************************ End: TS CHECKS AND WARNINGS **************************


                     ====================================
                        Begin CG opt. move =      0
                     ====================================

outcell: Unit cell vectors (Ang):
        5.760000    0.000000    0.000000
        0.000000    5.900000    0.000000
        0.000000    0.000000    7.691000

outcell: Cell vector modules (Ang)   :    5.760000    5.900000    7.691000
outcell: Cell angles (23,13,12) (deg):     90.0000     90.0000     90.0000
outcell: Cell volume (Ang**3)        :    261.3709
Gamma-point calculation with interaction between periodic images
Some features might not work optimally:
e.g. DM initialization from atomic data
<dSpData1D:S at geom step 0
  <sparsity:sparsity for geom step 0
    nrows_g=164 nrows=164 sparsity=.9926 nnzs=26696, refcount: 7>
  <dData1D:(new from dSpData1D) n=26696, refcount: 1>
refcount: 1>
new_DM -- step:     1
Initializing Density Matrix...
DM filled with atomic data:
<dSpData2D:DM initialized from atoms
  <sparsity:sparsity for geom step 0
    nrows_g=164 nrows=164 sparsity=.9926 nnzs=26696, refcount: 8>
  <dData2D:DM n=26696 m=1, refcount: 1>
refcount: 1>
No. of atoms with KB's overlaping orbs in proc 0. Max # of overlaps:      12     237
New grid distribution:   1
           1       1:   32    1:   32    1:   45

InitMesh: MESH =    64 x    64 x    90 =      368640
InitMesh: (bp) =    32 x    32 x    45 =       46080
InitMesh: Mesh cutoff (required, used) =   300.000   325.205 Ry
ExtMesh (bp) on 0 =   116 x   112 x   133 =     1727936
PhiOnMesh: Number of (b)points on node 0 =                46080
PhiOnMesh: nlist on node 0 =              2417760

stepf: Fermi-Dirac step function

siesta: Program's energy decomposition (eV):
siesta: Ebs     =      -879.169494
siesta: Eions   =      6525.756472
siesta: Ena     =       512.218255
siesta: Ekin    =      3149.396425
siesta: Enl     =     -1326.950346
siesta: Eso     =         0.000000
siesta: Edftu   =         0.000000
siesta: DEna    =        67.623521
siesta: DUscf   =        16.320644
siesta: DUext   =         0.000000
siesta: Exc     =     -1396.087344
siesta: eta*DQ  =         0.000000
siesta: Emadel  =         0.000000
siesta: Emeta   =         0.000000
siesta: Emolmec =         0.000000
siesta: Ekinion =         0.000000
siesta: Eharris =     -5507.651921
siesta: Etot    =     -5503.235318
siesta: FreeEng =     -5503.235633

        iscf     Eharris(eV)        E_KS(eV)     FreeEng(eV)     dDmax    Ef(eV) dHmax(eV)
   scf:    1    -5507.651921    -5503.235318    -5503.235633  0.897459 -1.905688  7.974736
timer: Routine,Calls,Time,% = IterSCF        1       2.312  17.51
   scf:    2    -5513.232790    -5510.547878    -5510.547878  0.266998 -2.302023  1.121906
   scf:    3    -5511.203262    -5510.897718    -5510.897718  0.037589 -2.417512  0.589478
   scf:    4    -5511.195051    -5511.068220    -5511.068220  0.037519 -2.542776  0.177509
   scf:    5    -5511.083009    -5511.077664    -5511.077664  0.007756 -2.563656  0.086999
   scf:    6    -5511.079346    -5511.078815    -5511.078815  0.001637 -2.564036  0.041776
   scf:    7    -5511.079999    -5511.079438    -5511.079439  0.001328 -2.565990  0.018405
   scf:    8    -5511.080232    -5511.079858    -5511.079858  0.001616 -2.567955  0.016812
   scf:    9    -5511.080067    -5511.079976    -5511.079976  0.000970 -2.568862  0.008652
   scf:   10    -5511.079992    -5511.079987    -5511.079987  0.000174 -2.568844  0.005381
   scf:   11    -5511.079998    -5511.079993    -5511.079993  0.000120 -2.568875  0.002338
   scf:   12    -5511.080002    -5511.079998    -5511.079999  0.000138 -2.568905  0.002080
   scf:   13    -5511.080002    -5511.080000    -5511.080001  0.000113 -2.568934  0.001041
   scf:   14    -5511.080000    -5511.080000    -5511.080001  0.000027 -2.568945  0.000614

SCF Convergence by DM+H criterion
max |DM_out - DM_in|         :     0.0000267581
max |H_out - H_in|      (eV) :     0.0006135813
SCF cycle converged after 14 iterations

Using DM_out to compute the final energy and forces
No. of atoms with KB's overlaping orbs in proc 0. Max # of overlaps:      12     237

siesta: E_KS(eV) =            -5511.0800

siesta: E_KS - E_eggbox =     -5511.0800

siesta: Atomic forces (eV/Ang):
----------------------------------------
   Tot    0.019598    0.034103   -0.009852
----------------------------------------
   Max    2.005787
   Res    0.800635    sqrt( Sum f_i^2 / 3N )
----------------------------------------
   Max    2.005787    constrained

Stress tensor Voigt[x,y,z,yz,xz,xy] (kbar):      -48.88      -21.78       86.25       36.63        0.46       14.59
(Free)E + p*V (eV/cell)    -5511.9278
Target enthalpy (eV/cell)    -5511.0800

                     ====================================
                        Begin CG opt. move =      1
                     ====================================

outcell: Unit cell vectors (Ang):
        5.760000    0.000000    0.000000
        0.000000    5.900000    0.000000
        0.000000    0.000000    7.691000

outcell: Cell vector modules (Ang)   :    5.760000    5.900000    7.691000
outcell: Cell angles (23,13,12) (deg):     90.0000     90.0000     90.0000
outcell: Cell volume (Ang**3)        :    261.3709
Gamma-point calculation with interaction between periodic images
Some features might not work optimally:
e.g. DM initialization from atomic data
<dSpData1D:S at geom step 1
  <sparsity:sparsity for geom step 1
    nrows_g=164 nrows=164 sparsity=.9926 nnzs=26696, refcount: 7>
  <dData1D:(new from dSpData1D) n=26696, refcount: 1>
refcount: 1>
new_DM -- step:     2
Re-using DM from previous geometries...
Number of DMs in history: 1
 DM extrapolation coefficients: 
1   1.00000
New DM after history re-use:
<dSpData2D:SpM extrapolated using coords
  <sparsity:sparsity for geom step 1
    nrows_g=164 nrows=164 sparsity=.9926 nnzs=26696, refcount: 9>
  <dData2D:(temp array for extrapolation) n=26696 m=1, refcount: 1>
refcount: 1>
Note: For starting DM, Qtot, Tr[D*S] =         88.00000000         88.08829141
No. of atoms with KB's overlaping orbs in proc 0. Max # of overlaps:      12     237
New grid distribution:   1
           1       1:   32    1:   32    1:   45

InitMesh: MESH =    64 x    64 x    90 =      368640
InitMesh: (bp) =    32 x    32 x    45 =       46080
InitMesh: Mesh cutoff (required, used) =   300.000   325.205 Ry
ExtMesh (bp) on 0 =   116 x   112 x   133 =     1727936
PhiOnMesh: Number of (b)points on node 0 =                46080
PhiOnMesh: nlist on node 0 =              2418567

        iscf     Eharris(eV)        E_KS(eV)     FreeEng(eV)     dDmax    Ef(eV) dHmax(eV)
   scf:    1    -5510.341156    -5511.278431    -5511.278431  0.049508 -2.489023  1.081204
   scf:    2    -5506.459803    -5509.888368    -5509.888369  0.116397 -2.337232  4.163232
   scf:    3    -5511.705007    -5511.451325    -5511.451326  0.092668 -2.446639  0.170003
   scf:    4    -5511.457881    -5511.456028    -5511.456028  0.003236 -2.443985  0.025890
   scf:    5    -5511.456624    -5511.456360    -5511.456360  0.000527 -2.443182  0.013334
   scf:    6    -5511.456537    -5511.456467    -5511.456467  0.000493 -2.442405  0.009413
   scf:    7    -5511.456486    -5511.456480    -5511.456480  0.000166 -2.442012  0.004087
   scf:    8    -5511.456487    -5511.456484    -5511.456484  0.000093 -2.441865  0.002536
   scf:    9    -5511.456488    -5511.456486    -5511.456486  0.000078 -2.441658  0.001329
   scf:   10    -5511.456488    -5511.456487    -5511.456487  0.000085 -2.441432  0.001113
   scf:   11    -5511.456488    -5511.456487    -5511.456487  0.000025 -2.441369  0.000506

SCF Convergence by DM+H criterion
max |DM_out - DM_in|         :     0.0000250073
max |H_out - H_in|      (eV) :     0.0005062887
SCF cycle converged after 11 iterations

Using DM_out to compute the final energy and forces
No. of atoms with KB's overlaping orbs in proc 0. Max # of overlaps:      12     237

siesta: E_KS(eV) =            -5511.4565

siesta: Atomic forces (eV/Ang):
----------------------------------------
   Tot    0.001925    0.024663   -0.020334
----------------------------------------
   Max    0.771739
   Res    0.388102    sqrt( Sum f_i^2 / 3N )
----------------------------------------
   Max    0.771739    constrained

Stress tensor Voigt[x,y,z,yz,xz,xy] (kbar):      -54.30      -18.99       73.63       17.73       -1.23        5.97
(Free)E + p*V (eV/cell)    -5511.4752
Target enthalpy (eV/cell)    -5511.4565

                     ====================================
                        Begin CG opt. move =      2
                     ====================================

outcell: Unit cell vectors (Ang):
        5.760000    0.000000    0.000000
        0.000000    5.900000    0.000000
        0.000000    0.000000    7.691000

outcell: Cell vector modules (Ang)   :    5.760000    5.900000    7.691000
outcell: Cell angles (23,13,12) (deg):     90.0000     90.0000     90.0000
outcell: Cell volume (Ang**3)        :    261.3709
Gamma-point calculation with interaction between periodic images
Some features might not work optimally:
e.g. DM initialization from atomic data
<dSpData1D:S at geom step 2
  <sparsity:sparsity for geom step 2
    nrows_g=164 nrows=164 sparsity=.9926 nnzs=26696, refcount: 7>
  <dData1D:(new from dSpData1D) n=26696, refcount: 1>
refcount: 1>
new_DM -- step:     3
Re-using DM from previous geometries...
Number of DMs in history: 1
 DM extrapolation coefficients: 
1   1.00000
New DM after history re-use:
<dSpData2D:SpM extrapolated using coords
  <sparsity:sparsity for geom step 2
    nrows_g=164 nrows=164 sparsity=.9926 nnzs=26696, refcount: 9>
  <dData2D:(temp array for extrapolation) n=26696 m=1, refcount: 1>
refcount: 1>
Note: For starting DM, Qtot, Tr[D*S] =         88.00000000         88.12985032
No. of atoms with KB's overlaping orbs in proc 0. Max # of overlaps:      12     247
New grid distribution:   1
           1       1:   32    1:   32    1:   45

InitMesh: MESH =    64 x    64 x    90 =      368640
InitMesh: (bp) =    32 x    32 x    45 =       46080
InitMesh: Mesh cutoff (required, used) =   300.000   325.205 Ry
ExtMesh (bp) on 0 =   116 x   112 x   133 =     1727936
PhiOnMesh: Number of (b)points on node 0 =                46080
PhiOnMesh: nlist on node 0 =              2418534

        iscf     Eharris(eV)        E_KS(eV)     FreeEng(eV)     dDmax    Ef(eV) dHmax(eV)
   scf:    1    -5508.582217    -5510.927936    -5510.927936  0.076209 -2.439287  1.712043
   scf:    2    -5498.177324    -5507.225062    -5507.225062  0.195687 -2.093137  6.870460
   scf:    3    -5511.957233    -5511.359026    -5511.359026  0.159709 -2.372222  0.340557
   scf:    4    -5511.380630    -5511.375018    -5511.375018  0.006165 -2.367002  0.040453
   scf:    5    -5511.376567    -5511.375883    -5511.375883  0.000825 -2.365618  0.020728
   scf:    6    -5511.376344    -5511.376163    -5511.376163  0.000803 -2.364267  0.013965
   scf:    7    -5511.376204    -5511.376191    -5511.376192  0.000252 -2.363634  0.006071
   scf:    8    -5511.376205    -5511.376199    -5511.376200  0.000139 -2.363331  0.003831
   scf:    9    -5511.376208    -5511.376204    -5511.376204  0.000116 -2.362968  0.001891
   scf:   10    -5511.376208    -5511.376206    -5511.376206  0.000133 -2.362544  0.001643
   scf:   11    -5511.376207    -5511.376207    -5511.376207  0.000040 -2.362439  0.000716

SCF Convergence by DM+H criterion
max |DM_out - DM_in|         :     0.0000396433
max |H_out - H_in|      (eV) :     0.0007162820
SCF cycle converged after 11 iterations

Using DM_out to compute the final energy and forces
No. of atoms with KB's overlaping orbs in proc 0. Max # of overlaps:      12     247

siesta: E_KS(eV) =            -5511.3762

siesta: Atomic forces (eV/Ang):
----------------------------------------
   Tot    0.013781    0.130775    0.002787
----------------------------------------
   Max    1.625612
   Res    0.767178    sqrt( Sum f_i^2 / 3N )
----------------------------------------
   Max    1.625612    constrained

Stress tensor Voigt[x,y,z,yz,xz,xy] (kbar):      -72.86      -26.09       44.28      -18.58      -14.34      -15.25
(Free)E + p*V (eV/cell)    -5508.4034
Target enthalpy (eV/cell)    -5511.3762

                     ====================================
                        Begin CG opt. move =      3
                     ====================================

outcell: Unit cell vectors (Ang):
        5.760000    0.000000    0.000000
        0.000000    5.900000    0.000000
        0.000000    0.000000    7.691000

outcell: Cell vector modules (Ang)   :    5.760000    5.900000    7.691000
outcell: Cell angles (23,13,12) (deg):     90.0000     90.0000     90.0000
outcell: Cell volume (Ang**3)        :    261.3709
Gamma-point calculation with interaction between periodic images
Some features might not work optimally:
e.g. DM initialization from atomic data
<dSpData1D:S at geom step 3
  <sparsity:sparsity for geom step 3
    nrows_g=164 nrows=164 sparsity=.9926 nnzs=26696, refcount: 7>
  <dData1D:(new from dSpData1D) n=26696, refcount: 1>
refcount: 1>
new_DM -- step:     4
Re-using DM from previous geometries...
Number of DMs in history: 1
 DM extrapolation coefficients: 
1   1.00000
New DM after history re-use:
<dSpData2D:SpM extrapolated using coords
  <sparsity:sparsity for geom step 3
    nrows_g=164 nrows=164 sparsity=.9926 nnzs=26696, refcount: 9>
  <dData2D:(temp array for extrapolation) n=26696 m=1, refcount: 1>
refcount: 1>
Note: For starting DM, Qtot, Tr[D*S] =         88.00000000         87.89866731
No. of atoms with KB's overlaping orbs in proc 0. Max # of overlaps:      12     242
New grid distribution:   1
           1       1:   32    1:   32    1:   45

InitMesh: MESH =    64 x    64 x    90 =      368640
InitMesh: (bp) =    32 x    32 x    45 =       46080
InitMesh: Mesh cutoff (required, used) =   300.000   325.205 Ry
ExtMesh (bp) on 0 =   116 x   112 x   133 =     1727936
PhiOnMesh: Number of (b)points on node 0 =                46080
PhiOnMesh: nlist on node 0 =              2419093

        iscf     Eharris(eV)        E_KS(eV)     FreeEng(eV)     dDmax    Ef(eV) dHmax(eV)
   scf:    1    -5511.731818    -5511.343530    -5511.343530  0.047043 -2.346615  1.140757
   scf:    2    -5507.202029    -5510.190496    -5510.190496  0.105604 -2.520915  3.857112
   scf:    3    -5511.856523    -5511.535869    -5511.535869  0.075828 -2.401872  0.062995
   scf:    4    -5511.538854    -5511.537592    -5511.537592  0.001109 -2.401235  0.026726
   scf:    5    -5511.538291    -5511.538000    -5511.538000  0.000704 -2.401875  0.011122
   scf:    6    -5511.538082    -5511.538056    -5511.538056  0.000371 -2.402491  0.008916
   scf:    7    -5511.538069    -5511.538065    -5511.538065  0.000134 -2.402781  0.002870
   scf:    8    -5511.538072    -5511.538069    -5511.538069  0.000093 -2.403069  0.002187
   scf:    9    -5511.538073    -5511.538071    -5511.538071  0.000099 -2.403318  0.001147
   scf:   10    -5511.538072    -5511.538072    -5511.538072  0.000068 -2.403515  0.000914

SCF Convergence by DM+H criterion
max |DM_out - DM_in|         :     0.0000682241
max |H_out - H_in|      (eV) :     0.0009136951
SCF cycle converged after 10 iterations

Using DM_out to compute the final energy and forces
No. of atoms with KB's overlaping orbs in proc 0. Max # of overlaps:      12     242

siesta: E_KS(eV) =            -5511.5381

siesta: Atomic forces (eV/Ang):
----------------------------------------
   Tot   -0.002423    0.085030    0.015176
----------------------------------------
   Max    0.529079
   Res    0.232846    sqrt( Sum f_i^2 / 3N )
----------------------------------------
   Max    0.529079    constrained

Stress tensor Voigt[x,y,z,yz,xz,xy] (kbar):      -59.26      -19.41       63.84        4.48       -4.74       -1.30
(Free)E + p*V (eV/cell)    -5510.7320
Target enthalpy (eV/cell)    -5511.5381

cgvc: Finished line minimization    1.  Mean atomic displacement =    0.0934

                     ====================================
                        Begin CG opt. move =      4
                     ====================================

outcell: Unit cell vectors (Ang):
        5.760000    0.000000    0.000000
        0.000000    5.900000    0.000000
        0.000000    0.000000    7.691000

outcell: Cell vector modules (Ang)   :    5.760000    5.900000    7.691000
outcell: Cell angles (23,13,12) (deg):     90.0000     90.0000     90.0000
outcell: Cell volume (Ang**3)        :    261.3709
Gamma-point calculation with interaction between periodic images
Some features might not work optimally:
e.g. DM initialization from atomic data
<dSpData1D:S at geom step 4
  <sparsity:sparsity for geom step 4
    nrows_g=164 nrows=164 sparsity=.9926 nnzs=26696, refcount: 7>
  <dData1D:(new from dSpData1D) n=26696, refcount: 1>
refcount: 1>
new_DM -- step:     5
Re-using DM from previous geometries...
Number of DMs in history: 1
 DM extrapolation coefficients: 
1   1.00000
New DM after history re-use:
<dSpData2D:SpM extrapolated using coords
  <sparsity:sparsity for geom step 4
    nrows_g=164 nrows=164 sparsity=.9926 nnzs=26696, refcount: 9>
  <dData2D:(temp array for extrapolation) n=26696 m=1, refcount: 1>
refcount: 1>
No. of atoms with KB's overlaping orbs in proc 0. Max # of overlaps:      12     247
New grid distribution:   1
           1       1:   32    1:   32    1:   45

InitMesh: MESH =    64 x    64 x    90 =      368640
InitMesh: (bp) =    32 x    32 x    45 =       46080
InitMesh: Mesh cutoff (required, used) =   300.000   325.205 Ry
ExtMesh (bp) on 0 =   116 x   112 x   133 =     1727936
PhiOnMesh: Number of (b)points on node 0 =                46080
PhiOnMesh: nlist on node 0 =              2419195

        iscf     Eharris(eV)        E_KS(eV)     FreeEng(eV)     dDmax    Ef(eV) dHmax(eV)
   scf:    1    -5510.444032    -5511.243251    -5511.243251  0.071187 -2.472636  1.205343
   scf:    2    -5500.120348    -5508.009968    -5508.009968  0.070236 -2.519142  4.900183
   scf:    3    -5512.332539    -5511.590455    -5511.590455  0.055138 -2.495520  0.085313
   scf:    4    -5511.595297    -5511.593237    -5511.593237  0.002227 -2.493681  0.028812
   scf:    5    -5511.594560    -5511.593973    -5511.593973  0.001476 -2.493797  0.016652
   scf:    6    -5511.594234    -5511.594133    -5511.594133  0.000816 -2.494001  0.008742
   scf:    7    -5511.594150    -5511.594145    -5511.594145  0.000191 -2.494051  0.005139
   scf:    8    -5511.594156    -5511.594151    -5511.594151  0.000133 -2.494063  0.002138
   scf:    9    -5511.594158    -5511.594155    -5511.594155  0.000134 -2.494091  0.001871
   scf:   10    -5511.594157    -5511.594156    -5511.594156  0.000133 -2.494109  0.000822
   scf:   11    -5511.594156    -5511.594156    -5511.594156  0.000016 -2.494117  0.000555

SCF Convergence by DM+H criterion
max |DM_out - DM_in|         :     0.0000164999
max |H_out - H_in|      (eV) :     0.0005545327
SCF cycle converged after 11 iterations

Using DM_out to compute the final energy and forces
No. of atoms with KB's overlaping orbs in proc 0. Max # of overlaps:      12     247

siesta: E_KS(eV) =            -5511.5942

siesta: Atomic forces (eV/Ang):
----------------------------------------
   Tot   -0.030711    0.067240   -0.016778
----------------------------------------
   Max    0.918710
   Res    0.348194    sqrt( Sum f_i^2 / 3N )
----------------------------------------
   Max    0.918710    constrained

Stress tensor Voigt[x,y,z,yz,xz,xy] (kbar):      -72.12      -17.56       65.32        4.72       10.73        8.46
(Free)E + p*V (eV/cell)    -5510.2691
Target enthalpy (eV/cell)    -5511.5942

                     ====================================
                        Begin CG opt. move =      5
                     ====================================

outcell: Unit cell vectors (Ang):
        5.760000    0.000000    0.000000
        0.000000    5.900000    0.000000
        0.000000    0.000000    7.691000

outcell: Cell vector modules (Ang)   :    5.760000    5.900000    7.691000
outcell: Cell angles (23,13,12) (deg):     90.0000     90.0000     90.0000
outcell: Cell volume (Ang**3)        :    261.3709
Gamma-point calculation with interaction between periodic images
Some features might not work optimally:
e.g. DM initialization from atomic data
<dSpData1D:S at geom step 5
  <sparsity:sparsity for geom step 5
    nrows_g=164 nrows=164 sparsity=.9926 nnzs=26696, refcount: 7>
  <dData1D:(new from dSpData1D) n=26696, refcount: 1>
refcount: 1>
new_DM -- step:     6
Re-using DM from previous geometries...
Number of DMs in history: 1
 DM extrapolation coefficients: 
1   1.00000
New DM after history re-use:
<dSpData2D:SpM extrapolated using coords
  <sparsity:sparsity for geom step 5
    nrows_g=164 nrows=164 sparsity=.9926 nnzs=26696, refcount: 9>
  <dData2D:(temp array for extrapolation) n=26696 m=1, refcount: 1>
refcount: 1>
No. of atoms with KB's overlaping orbs in proc 0. Max # of overlaps:      12     247
New grid distribution:   1
           1       1:   32    1:   32    1:   45

InitMesh: MESH =    64 x    64 x    90 =      368640
InitMesh: (bp) =    32 x    32 x    45 =       46080
InitMesh: Mesh cutoff (required, used) =   300.000   325.205 Ry
ExtMesh (bp) on 0 =   116 x   112 x   133 =     1727936
PhiOnMesh: Number of (b)points on node 0 =                46080
PhiOnMesh: nlist on node 0 =              2419036

        iscf     Eharris(eV)        E_KS(eV)     FreeEng(eV)     dDmax    Ef(eV) dHmax(eV)
   scf:    1    -5511.523773    -5511.568506    -5511.568506  0.025381 -2.461405  0.413506
   scf:    2    -5509.870233    -5511.068754    -5511.068754  0.030764 -2.436053  1.909622
   scf:    3    -5511.713307    -5511.615949    -5511.615949  0.026162 -2.456996  0.051858
   scf:    4    -5511.616821    -5511.616528    -5511.616528  0.001046 -2.456843  0.010006
   scf:    5    -5511.616669    -5511.616604    -5511.616605  0.000412 -2.456724  0.005451
   scf:    6    -5511.616652    -5511.616632    -5511.616632  0.000333 -2.456671  0.003202
   scf:    7    -5511.616635    -5511.616634    -5511.616634  0.000089 -2.456641  0.002023
   scf:    8    -5511.616635    -5511.616635    -5511.616635  0.000047 -2.456617  0.000742

SCF Convergence by DM+H criterion
max |DM_out - DM_in|         :     0.0000465448
max |H_out - H_in|      (eV) :     0.0007415986
SCF cycle converged after 8 iterations

Using DM_out to compute the final energy and forces
No. of atoms with KB's overlaping orbs in proc 0. Max # of overlaps:      12     247

siesta: E_KS(eV) =            -5511.6166

siesta: Atomic forces (eV/Ang):
----------------------------------------
   Tot   -0.015194    0.113754    0.002674
----------------------------------------
   Max    0.380170
   Res    0.205039    sqrt( Sum f_i^2 / 3N )
----------------------------------------
   Max    0.380170    constrained

Stress tensor Voigt[x,y,z,yz,xz,xy] (kbar):      -66.91      -17.66       64.64        5.03        5.14        4.98
(Free)E + p*V (eV/cell)    -5510.5328
Target enthalpy (eV/cell)    -5511.6166

cgvc: Finished line minimization    2.  Mean atomic displacement =    0.0599

                     ====================================
                        Begin CG opt. move =      6
                     ====================================

outcell: Unit cell vectors (Ang):
        5.760000    0.000000    0.000000
        0.000000    5.900000    0.000000
        0.000000    0.000000    7.691000

outcell: Cell vector modules (Ang)   :    5.760000    5.900000    7.691000
outcell: Cell angles (23,13,12) (deg):     90.0000     90.0000     90.0000
outcell: Cell volume (Ang**3)        :    261.3709
Gamma-point calculation with interaction between periodic images
Some features might not work optimally:
e.g. DM initialization from atomic data
<dSpData1D:S at geom step 6
  <sparsity:sparsity for geom step 6
    nrows_g=164 nrows=164 sparsity=.9926 nnzs=26696, refcount: 7>
  <dData1D:(new from dSpData1D) n=26696, refcount: 1>
refcount: 1>
new_DM -- step:     7
Re-using DM from previous geometries...
Number of DMs in history: 1
 DM extrapolation coefficients: 
1   1.00000
New DM after history re-use:
<dSpData2D:SpM extrapolated using coords
  <sparsity:sparsity for geom step 6
    nrows_g=164 nrows=164 sparsity=.9926 nnzs=26696, refcount: 9>
  <dData2D:(temp array for extrapolation) n=26696 m=1, refcount: 1>
refcount: 1>
No. of atoms with KB's overlaping orbs in proc 0. Max # of overlaps:      12     242
New grid distribution:   1
           1       1:   32    1:   32    1:   45

InitMesh: MESH =    64 x    64 x    90 =      368640
InitMesh: (bp) =    32 x    32 x    45 =       46080
InitMesh: Mesh cutoff (required, used) =   300.000   325.205 Ry
ExtMesh (bp) on 0 =   116 x   112 x   133 =     1727936
PhiOnMesh: Number of (b)points on node 0 =                46080
PhiOnMesh: nlist on node 0 =              2419287

        iscf     Eharris(eV)        E_KS(eV)     FreeEng(eV)     dDmax    Ef(eV) dHmax(eV)
   scf:    1    -5511.413963    -5511.663980    -5511.663980  0.043214 -2.506271  0.270116
   scf:    2    -5511.164082    -5511.528598    -5511.528598  0.025458 -2.522098  0.792766
   scf:    3    -5511.728054    -5511.693710    -5511.693710  0.018759 -2.509965  0.039405
   scf:    4    -5511.694974    -5511.694484    -5511.694484  0.001549 -2.510088  0.009569
   scf:    5    -5511.694720    -5511.694616    -5511.694616  0.000644 -2.510173  0.005157
   scf:    6    -5511.694691    -5511.694657    -5511.694657  0.000409 -2.510250  0.004029
   scf:    7    -5511.694677    -5511.694668    -5511.694669  0.000194 -2.510294  0.002037
   scf:    8    -5511.694674    -5511.694671    -5511.694672  0.000090 -2.510334  0.001430
   scf:    9    -5511.694674    -5511.694673    -5511.694673  0.000056 -2.510356  0.000671

SCF Convergence by DM+H criterion
max |DM_out - DM_in|         :     0.0000563086
max |H_out - H_in|      (eV) :     0.0006705532
SCF cycle converged after 9 iterations

Using DM_out to compute the final energy and forces
No. of atoms with KB's overlaping orbs in proc 0. Max # of overlaps:      12     242

siesta: E_KS(eV) =            -5511.6947

siesta: Atomic forces (eV/Ang):
----------------------------------------
   Tot   -0.006443    0.097164   -0.007211
----------------------------------------
   Max    0.371246
   Res    0.232231    sqrt( Sum f_i^2 / 3N )
----------------------------------------
   Max    0.371246    constrained

Stress tensor Voigt[x,y,z,yz,xz,xy] (kbar):      -69.20      -19.37       61.24        1.34       -1.33       -2.96
(Free)E + p*V (eV/cell)    -5510.2083
Target enthalpy (eV/cell)    -5511.6947

                     ====================================
                        Begin CG opt. move =      7
                     ====================================

outcell: Unit cell vectors (Ang):
        5.760000    0.000000    0.000000
        0.000000    5.900000    0.000000
        0.000000    0.000000    7.691000

outcell: Cell vector modules (Ang)   :    5.760000    5.900000    7.691000
outcell: Cell angles (23,13,12) (deg):     90.0000     90.0000     90.0000
outcell: Cell volume (Ang**3)        :    261.3709
Gamma-point calculation with interaction between periodic images
Some features might not work optimally:
e.g. DM initialization from atomic data
<dSpData1D:S at geom step 7
  <sparsity:sparsity for geom step 7
    nrows_g=164 nrows=164 sparsity=.9926 nnzs=26696, refcount: 7>
  <dData1D:(new from dSpData1D) n=26696, refcount: 1>
refcount: 1>
new_DM -- step:     8
Re-using DM from previous geometries...
Number of DMs in history: 1
 DM extrapolation coefficients: 
1   1.00000
New DM after history re-use:
<dSpData2D:SpM extrapolated using coords
  <sparsity:sparsity for geom step 7
    nrows_g=164 nrows=164 sparsity=.9926 nnzs=26696, refcount: 9>
  <dData2D:(temp array for extrapolation) n=26696 m=1, refcount: 1>
refcount: 1>
No. of atoms with KB's overlaping orbs in proc 0. Max # of overlaps:      12     229
New grid distribution:   1
           1       1:   32    1:   32    1:   45

InitMesh: MESH =    64 x    64 x    90 =      368640
InitMesh: (bp) =    32 x    32 x    45 =       46080
InitMesh: Mesh cutoff (required, used) =   300.000   325.205 Ry
ExtMesh (bp) on 0 =   116 x   112 x   133 =     1727936
PhiOnMesh: Number of (b)points on node 0 =                46080
PhiOnMesh: nlist on node 0 =              2418318

        iscf     Eharris(eV)        E_KS(eV)     FreeEng(eV)     dDmax    Ef(eV) dHmax(eV)
   scf:    1    -5511.164751    -5511.607959    -5511.607959  0.064930 -2.620852  0.462767
   scf:    2    -5509.551973    -5511.025280    -5511.025280  0.051576 -2.664567  1.593875
   scf:    3    -5511.818236    -5511.694853    -5511.694853  0.039876 -2.632853  0.069518
   scf:    4    -5511.698426    -5511.697064    -5511.697064  0.002373 -2.633780  0.015206
   scf:    5    -5511.697721    -5511.697426    -5511.697426  0.001090 -2.634350  0.009074
   scf:    6    -5511.697629    -5511.697542    -5511.697543  0.000704 -2.634875  0.006570
   scf:    7    -5511.697580    -5511.697565    -5511.697565  0.000235 -2.635128  0.003652
   scf:    8    -5511.697579    -5511.697573    -5511.697573  0.000132 -2.635285  0.001909
   scf:    9    -5511.697580    -5511.697577    -5511.697577  0.000104 -2.635438  0.001268
   scf:   10    -5511.697580    -5511.697578    -5511.697578  0.000091 -2.635564  0.000945

SCF Convergence by DM+H criterion
max |DM_out - DM_in|         :     0.0000905698
max |H_out - H_in|      (eV) :     0.0009452801
SCF cycle converged after 10 iterations

Using DM_out to compute the final energy and forces
No. of atoms with KB's overlaping orbs in proc 0. Max # of overlaps:      12     229

siesta: E_KS(eV) =            -5511.6976

siesta: Atomic forces (eV/Ang):
----------------------------------------
   Tot   -0.017599    0.045958    0.009939
----------------------------------------
   Max    0.960129
   Res    0.531398    sqrt( Sum f_i^2 / 3N )
----------------------------------------
   Max    0.960129    constrained

Stress tensor Voigt[x,y,z,yz,xz,xy] (kbar):      -72.75      -20.89       56.75       -7.35      -12.21      -17.18
(Free)E + p*V (eV/cell)    -5509.6916
Target enthalpy (eV/cell)    -5511.6976

                     ====================================
                        Begin CG opt. move =      8
                     ====================================

outcell: Unit cell vectors (Ang):
        5.760000    0.000000    0.000000
        0.000000    5.900000    0.000000
        0.000000    0.000000    7.691000

outcell: Cell vector modules (Ang)   :    5.760000    5.900000    7.691000
outcell: Cell angles (23,13,12) (deg):     90.0000     90.0000     90.0000
outcell: Cell volume (Ang**3)        :    261.3709
Gamma-point calculation with interaction between periodic images
Some features might not work optimally:
e.g. DM initialization from atomic data
<dSpData1D:S at geom step 8
  <sparsity:sparsity for geom step 8
    nrows_g=164 nrows=164 sparsity=.9926 nnzs=26696, refcount: 7>
  <dData1D:(new from dSpData1D) n=26696, refcount: 1>
refcount: 1>
new_DM -- step:     9
Re-using DM from previous geometries...
Number of DMs in history: 1
 DM extrapolation coefficients: 
1   1.00000
New DM after history re-use:
<dSpData2D:SpM extrapolated using coords
  <sparsity:sparsity for geom step 8
    nrows_g=164 nrows=164 sparsity=.9926 nnzs=26696, refcount: 9>
  <dData2D:(temp array for extrapolation) n=26696 m=1, refcount: 1>
refcount: 1>
No. of atoms with KB's overlaping orbs in proc 0. Max # of overlaps:      12     229
New grid distribution:   1
           1       1:   32    1:   32    1:   45

InitMesh: MESH =    64 x    64 x    90 =      368640
InitMesh: (bp) =    32 x    32 x    45 =       46080
InitMesh: Mesh cutoff (required, used) =   300.000   325.205 Ry
ExtMesh (bp) on 0 =   116 x   112 x   133 =     1727936
PhiOnMesh: Number of (b)points on node 0 =                46080
PhiOnMesh: nlist on node 0 =              2418132

        iscf     Eharris(eV)        E_KS(eV)     FreeEng(eV)     dDmax    Ef(eV) dHmax(eV)
   scf:    1    -5511.818925    -5511.695879    -5511.695879  0.030714 -2.569506  0.242777
   scf:    2    -5511.250409    -5511.571299    -5511.571299  0.023557 -2.560774  0.715426
   scf:    3    -5511.744646    -5511.716911    -5511.716911  0.017664 -2.567065  0.037267
   scf:    4    -5511.717774    -5511.717452    -5511.717453  0.001211 -2.566846  0.007601
   scf:    5    -5511.717607    -5511.717539    -5511.717539  0.000514 -2.566657  0.004488
   scf:    6    -5511.717590    -5511.717568    -5511.717568  0.000342 -2.566480  0.002625
   scf:    7    -5511.717580    -5511.717575    -5511.717575  0.000152 -2.566350  0.001960
   scf:    8    -5511.717578    -5511.717577    -5511.717577  0.000072 -2.566287  0.000892

SCF Convergence by DM+H criterion
max |DM_out - DM_in|         :     0.0000719212
max |H_out - H_in|      (eV) :     0.0008920965
SCF cycle converged after 8 iterations

Using DM_out to compute the final energy and forces
No. of atoms with KB's overlaping orbs in proc 0. Max # of overlaps:      12     229

siesta: E_KS(eV) =            -5511.7176

siesta: Atomic forces (eV/Ang):
----------------------------------------
   Tot   -0.002553    0.065441   -0.011340
----------------------------------------
   Max    0.618449
   Res    0.358062    sqrt( Sum f_i^2 / 3N )
----------------------------------------
   Max    0.618449    constrained

Stress tensor Voigt[x,y,z,yz,xz,xy] (kbar):      -70.88      -20.05       58.81       -2.64       -6.46       -9.65
(Free)E + p*V (eV/cell)    -5509.9713
Target enthalpy (eV/cell)    -5511.7176

cgvc: Finished line minimization    3.  Mean atomic displacement =    0.1066

                     ====================================
                        Begin CG opt. move =      9
                     ====================================

outcell: Unit cell vectors (Ang):
        5.760000    0.000000    0.000000
        0.000000    5.900000    0.000000
        0.000000    0.000000    7.691000

outcell: Cell vector modules (Ang)   :    5.760000    5.900000    7.691000
outcell: Cell angles (23,13,12) (deg):     90.0000     90.0000     90.0000
outcell: Cell volume (Ang**3)        :    261.3709
Gamma-point calculation with interaction between periodic images
Some features might not work optimally:
e.g. DM initialization from atomic data
<dSpData1D:S at geom step 9
  <sparsity:sparsity for geom step 9
    nrows_g=164 nrows=164 sparsity=.9926 nnzs=26696, refcount: 7>
  <dData1D:(new from dSpData1D) n=26696, refcount: 1>
refcount: 1>
new_DM -- step:    10
Re-using DM from previous geometries...
Number of DMs in history: 1
 DM extrapolation coefficients: 
1   1.00000
New DM after history re-use:
<dSpData2D:SpM extrapolated using coords
  <sparsity:sparsity for geom step 9
    nrows_g=164 nrows=164 sparsity=.9926 nnzs=26696, refcount: 9>
  <dData2D:(temp array for extrapolation) n=26696 m=1, refcount: 1>
refcount: 1>
No. of atoms with KB's overlaping orbs in proc 0. Max # of overlaps:      12     231
New grid distribution:   1
           1       1:   32    1:   32    1:   45

InitMesh: MESH =    64 x    64 x    90 =      368640
InitMesh: (bp) =    32 x    32 x    45 =       46080
InitMesh: Mesh cutoff (required, used) =   300.000   325.205 Ry
ExtMesh (bp) on 0 =   116 x   112 x   133 =     1727936
PhiOnMesh: Number of (b)points on node 0 =                46080
PhiOnMesh: nlist on node 0 =              2417795

        iscf     Eharris(eV)        E_KS(eV)     FreeEng(eV)     dDmax    Ef(eV) dHmax(eV)
   scf:    1    -5511.872341    -5511.793244    -5511.793245  0.052515 -2.706233  0.544805
   scf:    2    -5510.533680    -5511.449267    -5511.449267  0.037690 -2.818318  1.762842
   scf:    3    -5511.961036    -5511.862236    -5511.862236  0.028283 -2.738704  0.038922
   scf:    4    -5511.864663    -5511.863635    -5511.863635  0.002162 -2.739823  0.020999
   scf:    5    -5511.864266    -5511.863985    -5511.863985  0.001048 -2.740841  0.012957
   scf:    6    -5511.864211    -5511.864109    -5511.864110  0.000632 -2.741745  0.008258
   scf:    7    -5511.864187    -5511.864152    -5511.864152  0.000381 -2.742467  0.005792
   scf:    8    -5511.864178    -5511.864167    -5511.864167  0.000182 -2.742935  0.003560
   scf:    9    -5511.864176    -5511.864172    -5511.864172  0.000104 -2.743258  0.002402
   scf:   10    -5511.864176    -5511.864174    -5511.864174  0.000065 -2.743510  0.001508
   scf:   11    -5511.864176    -5511.864175    -5511.864175  0.000043 -2.743692  0.001082
   scf:   12    -5511.864175    -5511.864175    -5511.864175  0.000024 -2.743811  0.000670

SCF Convergence by DM+H criterion
max |DM_out - DM_in|         :     0.0000239414
max |H_out - H_in|      (eV) :     0.0006704066
SCF cycle converged after 12 iterations

Using DM_out to compute the final energy and forces
No. of atoms with KB's overlaping orbs in proc 0. Max # of overlaps:      12     231

siesta: E_KS(eV) =            -5511.8642

siesta: Atomic forces (eV/Ang):
----------------------------------------
   Tot    0.004473   -0.028871    0.011426
----------------------------------------
   Max    0.708770
   Res    0.378866    sqrt( Sum f_i^2 / 3N )
----------------------------------------
   Max    0.708770    constrained

Stress tensor Voigt[x,y,z,yz,xz,xy] (kbar):      -59.70      -14.16       60.10       -7.01       -5.43       -9.65
(Free)E + p*V (eV/cell)    -5511.1157
Target enthalpy (eV/cell)    -5511.8642

                     ====================================
                        Begin CG opt. move =     10
                     ====================================

outcell: Unit cell vectors (Ang):
        5.760000    0.000000    0.000000
        0.000000    5.900000    0.000000
        0.000000    0.000000    7.691000

outcell: Cell vector modules (Ang)   :    5.760000    5.900000    7.691000
outcell: Cell angles (23,13,12) (deg):     90.0000     90.0000     90.0000
outcell: Cell volume (Ang**3)        :    261.3709
Gamma-point calculation with interaction between periodic images
Some features might not work optimally:
e.g. DM initialization from atomic data
<dSpData1D:S at geom step 10
  <sparsity:sparsity for geom step 10
    nrows_g=164 nrows=164 sparsity=1.0000 nnzs=26896, refcount: 7>
  <dData1D:(new from dSpData1D) n=26896, refcount: 1>
refcount: 1>
new_DM -- step:    11
Re-using DM from previous geometries...
Number of DMs in history: 1
 DM extrapolation coefficients: 
1   1.00000
New DM after history re-use:
<dSpData2D:SpM extrapolated using coords
  <sparsity:sparsity for geom step 10
    nrows_g=164 nrows=164 sparsity=1.0000 nnzs=26896, refcount: 9>
  <dData2D:(temp array for extrapolation) n=26896 m=1, refcount: 1>
refcount: 1>
Note: For starting DM, Qtot, Tr[D*S] =         88.00000000         87.85527772
No. of atoms with KB's overlaping orbs in proc 0. Max # of overlaps:      12     238
New grid distribution:   1
           1       1:   32    1:   32    1:   45

InitMesh: MESH =    64 x    64 x    90 =      368640
InitMesh: (bp) =    32 x    32 x    45 =       46080
InitMesh: Mesh cutoff (required, used) =   300.000   325.205 Ry
ExtMesh (bp) on 0 =   116 x   112 x   133 =     1727936
PhiOnMesh: Number of (b)points on node 0 =                46080
PhiOnMesh: nlist on node 0 =              2417632

        iscf     Eharris(eV)        E_KS(eV)     FreeEng(eV)     dDmax    Ef(eV) dHmax(eV)
   scf:    1    -5511.724238    -5511.623028    -5511.623028  0.084142 -2.994395  0.887135
   scf:    2    -5506.988039    -5510.328229    -5510.328229  0.061486 -3.195593  2.896936
   scf:    3    -5512.196347    -5511.833033    -5511.833033  0.046644 -3.057254  0.067716
   scf:    4    -5511.837398    -5511.835669    -5511.835669  0.002650 -3.060766  0.048034
   scf:    5    -5511.836855    -5511.836354    -5511.836354  0.001228 -3.063232  0.026880
   scf:    6    -5511.836882    -5511.836642    -5511.836642  0.000822 -3.065267  0.016924
   scf:    7    -5511.836867    -5511.836765    -5511.836765  0.000607 -3.067063  0.012543
   scf:    8    -5511.836832    -5511.836804    -5511.836804  0.000310 -3.068128  0.008312
   scf:    9    -5511.836828    -5511.836818    -5511.836818  0.000183 -3.068767  0.005337
   scf:   10    -5511.836831    -5511.836825    -5511.836825  0.000136 -3.069285  0.003428
   scf:   11    -5511.836830    -5511.836827    -5511.836827  0.000117 -3.069742  0.002534
   scf:   12    -5511.836829    -5511.836828    -5511.836829  0.000065 -3.070007  0.001667
   scf:   13    -5511.836829    -5511.836829    -5511.836829  0.000037 -3.070153  0.001114
   scf:   14    -5511.836829    -5511.836829    -5511.836829  0.000027 -3.070264  0.000715

SCF Convergence by DM+H criterion
max |DM_out - DM_in|         :     0.0000269734
max |H_out - H_in|      (eV) :     0.0007151356
SCF cycle converged after 14 iterations

Using DM_out to compute the final energy and forces
No. of atoms with KB's overlaping orbs in proc 0. Max # of overlaps:      12     238

siesta: E_KS(eV) =            -5511.8368

siesta: Atomic forces (eV/Ang):
----------------------------------------
   Tot   -0.020641   -0.038887   -0.015226
----------------------------------------
   Max    0.872250
   Res    0.476399    sqrt( Sum f_i^2 / 3N )
----------------------------------------
   Max    0.872250    constrained

Stress tensor Voigt[x,y,z,yz,xz,xy] (kbar):      -35.27       -0.64       66.79      -13.36       -3.33       -9.86
(Free)E + p*V (eV/cell)    -5513.5160
Target enthalpy (eV/cell)    -5511.8368

                     ====================================
                        Begin CG opt. move =     11
                     ====================================

outcell: Unit cell vectors (Ang):
        5.760000    0.000000    0.000000
        0.000000    5.900000    0.000000
        0.000000    0.000000    7.691000

outcell: Cell vector modules (Ang)   :    5.760000    5.900000    7.691000
outcell: Cell angles (23,13,12) (deg):     90.0000     90.0000     90.0000
outcell: Cell volume (Ang**3)        :    261.3709
Gamma-point calculation with interaction between periodic images
Some features might not work optimally:
e.g. DM initialization from atomic data
<dSpData1D:S at geom step 11
  <sparsity:sparsity for geom step 11
    nrows_g=164 nrows=164 sparsity=.9981 nnzs=26846, refcount: 7>
  <dData1D:(new from dSpData1D) n=26846, refcount: 1>
refcount: 1>
new_DM -- step:    12
Re-using DM from previous geometries...
Number of DMs in history: 1
 DM extrapolation coefficients: 
1   1.00000
New DM after history re-use:
<dSpData2D:SpM extrapolated using coords
  <sparsity:sparsity for geom step 11
    nrows_g=164 nrows=164 sparsity=.9981 nnzs=26846, refcount: 9>
  <dData2D:(temp array for extrapolation) n=26846 m=1, refcount: 1>
refcount: 1>
No. of atoms with KB's overlaping orbs in proc 0. Max # of overlaps:      12     231
New grid distribution:   1
           1       1:   32    1:   32    1:   45

InitMesh: MESH =    64 x    64 x    90 =      368640
InitMesh: (bp) =    32 x    32 x    45 =       46080
InitMesh: Mesh cutoff (required, used) =   300.000   325.205 Ry
ExtMesh (bp) on 0 =   116 x   112 x   133 =     1727936
PhiOnMesh: Number of (b)points on node 0 =                46080
PhiOnMesh: nlist on node 0 =              2417511

        iscf     Eharris(eV)        E_KS(eV)     FreeEng(eV)     dDmax    Ef(eV) dHmax(eV)
   scf:    1    -5511.575731    -5511.839896    -5511.839896  0.052938 -2.892473  0.369763
   scf:    2    -5510.661418    -5511.514905    -5511.514905  0.025970 -2.811252  1.239351
   scf:    3    -5511.988571    -5511.899471    -5511.899471  0.018441 -2.871366  0.067794
   scf:    4    -5511.901117    -5511.900620    -5511.900620  0.001661 -2.869799  0.030507
   scf:    5    -5511.901008    -5511.900849    -5511.900849  0.000624 -2.868947  0.012603
   scf:    6    -5511.901044    -5511.900953    -5511.900953  0.000502 -2.868053  0.007845
   scf:    7    -5511.901045    -5511.901006    -5511.901006  0.000452 -2.866985  0.006066
   scf:    8    -5511.901019    -5511.901013    -5511.901014  0.000178 -2.866509  0.003832
   scf:    9    -5511.901017    -5511.901016    -5511.901016  0.000078 -2.866294  0.002230
   scf:   10    -5511.901018    -5511.901017    -5511.901017  0.000068 -2.866063  0.001407
   scf:   11    -5511.901019    -5511.901018    -5511.901018  0.000077 -2.865804  0.000990

SCF Convergence by DM+H criterion
max |DM_out - DM_in|         :     0.0000769851
max |H_out - H_in|      (eV) :     0.0009896297
SCF cycle converged after 11 iterations

Using DM_out to compute the final energy and forces
No. of atoms with KB's overlaping orbs in proc 0. Max # of overlaps:      12     231

siesta: E_KS(eV) =            -5511.9010

siesta: Atomic forces (eV/Ang):
----------------------------------------
   Tot   -0.012431   -0.060565    0.008395
----------------------------------------
   Max    0.765069
   Res    0.403903    sqrt( Sum f_i^2 / 3N )
----------------------------------------
   Max    0.765069    constrained

Stress tensor Voigt[x,y,z,yz,xz,xy] (kbar):      -51.48       -9.16       62.67      -10.04       -4.73       -9.68
(Free)E + p*V (eV/cell)    -5512.0113
Target enthalpy (eV/cell)    -5511.9010

cgvc: Finished line minimization    4.  Mean atomic displacement =    0.1696

                     ====================================
                        Begin CG opt. move =     12
                     ====================================

outcell: Unit cell vectors (Ang):
        5.760000    0.000000    0.000000
        0.000000    5.900000    0.000000
        0.000000    0.000000    7.691000

outcell: Cell vector modules (Ang)   :    5.760000    5.900000    7.691000
outcell: Cell angles (23,13,12) (deg):     90.0000     90.0000     90.0000
outcell: Cell volume (Ang**3)        :    261.3709
Gamma-point calculation with interaction between periodic images
Some features might not work optimally:
e.g. DM initialization from atomic data
<dSpData1D:S at geom step 12
  <sparsity:sparsity for geom step 12
    nrows_g=164 nrows=164 sparsity=1.0000 nnzs=26896, refcount: 7>
  <dData1D:(new from dSpData1D) n=26896, refcount: 1>
refcount: 1>
new_DM -- step:    13
Re-using DM from previous geometries...
Number of DMs in history: 1
 DM extrapolation coefficients: 
1   1.00000
New DM after history re-use:
<dSpData2D:SpM extrapolated using coords
  <sparsity:sparsity for geom step 12
    nrows_g=164 nrows=164 sparsity=1.0000 nnzs=26896, refcount: 9>
  <dData2D:(temp array for extrapolation) n=26896 m=1, refcount: 1>
refcount: 1>
Note: For starting DM, Qtot, Tr[D*S] =         88.00000000         87.71214057
No. of atoms with KB's overlaping orbs in proc 0. Max # of overlaps:      12     237
New grid distribution:   1
           1       1:   32    1:   32    1:   45

InitMesh: MESH =    64 x    64 x    90 =      368640
InitMesh: (bp) =    32 x    32 x    45 =       46080
InitMesh: Mesh cutoff (required, used) =   300.000   325.205 Ry
ExtMesh (bp) on 0 =   116 x   112 x   133 =     1727936
PhiOnMesh: Number of (b)points on node 0 =                46080
PhiOnMesh: nlist on node 0 =              2417997

        iscf     Eharris(eV)        E_KS(eV)     FreeEng(eV)     dDmax    Ef(eV) dHmax(eV)
   scf:    1    -5509.937081    -5510.828969    -5510.828969  0.112332 -3.006290  2.234943
   scf:    2    -5476.244753    -5500.915766    -5500.915766  0.242159 -3.383969  8.458348
   scf:    3    -5514.845248    -5512.021896    -5512.021896  0.191094 -3.121238  0.336249
   scf:    4    -5512.034777    -5512.035736    -5512.035736  0.005826 -3.118459  0.143238
   scf:    5    -5512.039948    -5512.038672    -5512.038672  0.001992 -3.121620  0.037450
   scf:    6    -5512.040160    -5512.039493    -5512.039493  0.001292 -3.124525  0.024716
   scf:    7    -5512.040047    -5512.039815    -5512.039815  0.001278 -3.127071  0.020646
   scf:    8    -5512.039922    -5512.039886    -5512.039886  0.000441 -3.128154  0.012317
   scf:    9    -5512.039945    -5512.039918    -5512.039918  0.000346 -3.128938  0.006566
   scf:   10    -5512.039952    -5512.039935    -5512.039935  0.000306 -3.129755  0.004521
   scf:   11    -5512.039952    -5512.039944    -5512.039945  0.000278 -3.130470  0.003520
   scf:   12    -5512.039947    -5512.039946    -5512.039946  0.000074 -3.130681  0.002120
   scf:   13    -5512.039948    -5512.039947    -5512.039947  0.000063 -3.130842  0.001187
   scf:   14    -5512.039949    -5512.039948    -5512.039948  0.000058 -3.131027  0.000836

SCF Convergence by DM+H criterion
max |DM_out - DM_in|         :     0.0000575133
max |H_out - H_in|      (eV) :     0.0008358265
SCF cycle converged after 14 iterations

Using DM_out to compute the final energy and forces
No. of atoms with KB's overlaping orbs in proc 0. Max # of overlaps:      12     237

siesta: E_KS(eV) =            -5512.0399

siesta: Atomic forces (eV/Ang):
----------------------------------------
   Tot    0.005282    0.041147   -0.024189
----------------------------------------
   Max    1.074329
   Res    0.523440    sqrt( Sum f_i^2 / 3N )
----------------------------------------
   Max    1.074329    constrained

Stress tensor Voigt[x,y,z,yz,xz,xy] (kbar):       -3.31       22.25       83.08       -1.94       16.67       14.82
(Free)E + p*V (eV/cell)    -5517.5874
Target enthalpy (eV/cell)    -5512.0399

                     ====================================
                        Begin CG opt. move =     13
                     ====================================

outcell: Unit cell vectors (Ang):
        5.760000    0.000000    0.000000
        0.000000    5.900000    0.000000
        0.000000    0.000000    7.691000

outcell: Cell vector modules (Ang)   :    5.760000    5.900000    7.691000
outcell: Cell angles (23,13,12) (deg):     90.0000     90.0000     90.0000
outcell: Cell volume (Ang**3)        :    261.3709
Gamma-point calculation with interaction between periodic images
Some features might not work optimally:
e.g. DM initialization from atomic data
<dSpData1D:S at geom step 13
  <sparsity:sparsity for geom step 13
    nrows_g=164 nrows=164 sparsity=1.0000 nnzs=26896, refcount: 7>
  <dData1D:(new from dSpData1D) n=26896, refcount: 1>
refcount: 1>
new_DM -- step:    14
Re-using DM from previous geometries...
Number of DMs in history: 1
 DM extrapolation coefficients: 
1   1.00000
New DM after history re-use:
<dSpData2D:SpM extrapolated using coords
  <sparsity:sparsity for geom step 13
    nrows_g=164 nrows=164 sparsity=1.0000 nnzs=26896, refcount: 9>
  <dData2D:(temp array for extrapolation) n=26896 m=1, refcount: 1>
refcount: 1>
No. of atoms with KB's overlaping orbs in proc 0. Max # of overlaps:      12     237
New grid distribution:   1
           1       1:   32    1:   32    1:   45

InitMesh: MESH =    64 x    64 x    90 =      368640
InitMesh: (bp) =    32 x    32 x    45 =       46080
InitMesh: Mesh cutoff (required, used) =   300.000   325.205 Ry
ExtMesh (bp) on 0 =   116 x   112 x   133 =     1727936
PhiOnMesh: Number of (b)points on node 0 =                46080
PhiOnMesh: nlist on node 0 =              2417988

        iscf     Eharris(eV)        E_KS(eV)     FreeEng(eV)     dDmax    Ef(eV) dHmax(eV)
   scf:    1    -5511.323606    -5511.990501    -5511.990501  0.035944 -3.076419  0.661202
   scf:    2    -5508.498980    -5510.962758    -5510.962758  0.059418 -2.969833  2.602689
   scf:    3    -5512.256851    -5512.088128    -5512.088128  0.046493 -3.050545  0.142559
   scf:    4    -5512.091220    -5512.090777    -5512.090778  0.002147 -3.048926  0.027835
   scf:    5    -5512.091102    -5512.090975    -5512.090975  0.000717 -3.048071  0.012329
   scf:    6    -5512.091099    -5512.091043    -5512.091043  0.000496 -3.047382  0.007614
   scf:    7    -5512.091094    -5512.091072    -5512.091072  0.000442 -3.046721  0.006216
   scf:    8    -5512.091083    -5512.091079    -5512.091079  0.000184 -3.046417  0.003808
   scf:    9    -5512.091085    -5512.091082    -5512.091082  0.000122 -3.046190  0.002239
   scf:   10    -5512.091085    -5512.091084    -5512.091084  0.000099 -3.046006  0.001448
   scf:   11    -5512.091085    -5512.091085    -5512.091085  0.000089 -3.045827  0.001098
   scf:   12    -5512.091085    -5512.091085    -5512.091085  0.000037 -3.045726  0.000695

SCF Convergence by DM+H criterion
max |DM_out - DM_in|         :     0.0000368786
max |H_out - H_in|      (eV) :     0.0006945004
SCF cycle converged after 12 iterations

Using DM_out to compute the final energy and forces
No. of atoms with KB's overlaping orbs in proc 0. Max # of overlaps:      12     237

siesta: E_KS(eV) =            -5512.0911

siesta: Atomic forces (eV/Ang):
----------------------------------------
   Tot   -0.011260    0.085698    0.016700
----------------------------------------
   Max    0.838010
   Res    0.373651    sqrt( Sum f_i^2 / 3N )
----------------------------------------
   Max    0.838010    constrained

Stress tensor Voigt[x,y,z,yz,xz,xy] (kbar):      -17.45       13.78       76.93       -4.25       11.06        8.37
(Free)E + p*V (eV/cell)    -5516.0745
Target enthalpy (eV/cell)    -5512.0911

cgvc: Finished line minimization    5.  Mean atomic displacement =    0.1141

                     ====================================
                        Begin CG opt. move =     14
                     ====================================

outcell: Unit cell vectors (Ang):
        5.760000    0.000000    0.000000
        0.000000    5.900000    0.000000
        0.000000    0.000000    7.691000

outcell: Cell vector modules (Ang)   :    5.760000    5.900000    7.691000
outcell: Cell angles (23,13,12) (deg):     90.0000     90.0000     90.0000
outcell: Cell volume (Ang**3)        :    261.3709
Gamma-point calculation with interaction between periodic images
Some features might not work optimally:
e.g. DM initialization from atomic data
<dSpData1D:S at geom step 14
  <sparsity:sparsity for geom step 14
    nrows_g=164 nrows=164 sparsity=1.0000 nnzs=26896, refcount: 7>
  <dData1D:(new from dSpData1D) n=26896, refcount: 1>
refcount: 1>
new_DM -- step:    15
Re-using DM from previous geometries...
Number of DMs in history: 1
 DM extrapolation coefficients: 
1   1.00000
New DM after history re-use:
<dSpData2D:SpM extrapolated using coords
  <sparsity:sparsity for geom step 14
    nrows_g=164 nrows=164 sparsity=1.0000 nnzs=26896, refcount: 9>
  <dData2D:(temp array for extrapolation) n=26896 m=1, refcount: 1>
refcount: 1>
Note: For starting DM, Qtot, Tr[D*S] =         88.00000000         87.85108343
No. of atoms with KB's overlaping orbs in proc 0. Max # of overlaps:      12     237
New grid distribution:   1
           1       1:   32    1:   32    1:   45

InitMesh: MESH =    64 x    64 x    90 =      368640
InitMesh: (bp) =    32 x    32 x    45 =       46080
InitMesh: Mesh cutoff (required, used) =   300.000   325.205 Ry
ExtMesh (bp) on 0 =   116 x   112 x   133 =     1727936
PhiOnMesh: Number of (b)points on node 0 =                46080
PhiOnMesh: nlist on node 0 =              2418543

        iscf     Eharris(eV)        E_KS(eV)     FreeEng(eV)     dDmax    Ef(eV) dHmax(eV)
   scf:    1    -5512.374577    -5511.947538    -5511.947538  0.079106 -3.086794  1.077708
   scf:    2    -5503.451357    -5509.476499    -5509.476499  0.101010 -3.226498  3.664819
   scf:    3    -5512.738863    -5512.216026    -5512.216026  0.080725 -3.129346  0.127506
   scf:    4    -5512.220673    -5512.219041    -5512.219041  0.002631 -3.131013  0.034923
   scf:    5    -5512.220031    -5512.219613    -5512.219613  0.001338 -3.132691  0.025074
   scf:    6    -5512.219943    -5512.219809    -5512.219809  0.000963 -3.133952  0.017371
   scf:    7    -5512.219944    -5512.219888    -5512.219888  0.000546 -3.134782  0.010148
   scf:    8    -5512.219949    -5512.219922    -5512.219922  0.000430 -3.135416  0.006983
   scf:    9    -5512.219953    -5512.219939    -5512.219939  0.000321 -3.135895  0.004496
   scf:   10    -5512.219952    -5512.219947    -5512.219947  0.000217 -3.136280  0.003422
   scf:   11    -5512.219952    -5512.219950    -5512.219950  0.000119 -3.136486  0.001972
   scf:   12    -5512.219952    -5512.219951    -5512.219951  0.000092 -3.136682  0.001422
   scf:   13    -5512.219952    -5512.219952    -5512.219952  0.000070 -3.136798  0.000907

SCF Convergence by DM+H criterion
max |DM_out - DM_in|         :     0.0000701141
max |H_out - H_in|      (eV) :     0.0009067553
SCF cycle converged after 13 iterations

Using DM_out to compute the final energy and forces
No. of atoms with KB's overlaping orbs in proc 0. Max # of overlaps:      12     237

siesta: E_KS(eV) =            -5512.2200

siesta: Atomic forces (eV/Ang):
----------------------------------------
   Tot   -0.019838    0.002955   -0.010224
----------------------------------------
   Max    0.303330
   Res    0.170846    sqrt( Sum f_i^2 / 3N )
----------------------------------------
   Max    0.303330    constrained

Stress tensor Voigt[x,y,z,yz,xz,xy] (kbar):       10.04       35.82       90.67       -4.38       -1.30       -2.04
(Free)E + p*V (eV/cell)    -5519.6438
Target enthalpy (eV/cell)    -5512.2200

                     ====================================
                        Begin CG opt. move =     15
                     ====================================

outcell: Unit cell vectors (Ang):
        5.760000    0.000000    0.000000
        0.000000    5.900000    0.000000
        0.000000    0.000000    7.691000

outcell: Cell vector modules (Ang)   :    5.760000    5.900000    7.691000
outcell: Cell angles (23,13,12) (deg):     90.0000     90.0000     90.0000
outcell: Cell volume (Ang**3)        :    261.3709
Gamma-point calculation with interaction between periodic images
Some features might not work optimally:
e.g. DM initialization from atomic data
<dSpData1D:S at geom step 15
  <sparsity:sparsity for geom step 15
    nrows_g=164 nrows=164 sparsity=1.0000 nnzs=26896, refcount: 7>
  <dData1D:(new from dSpData1D) n=26896, refcount: 1>
refcount: 1>
new_DM -- step:    16
Re-using DM from previous geometries...
Number of DMs in history: 1
 DM extrapolation coefficients: 
1   1.00000
New DM after history re-use:
<dSpData2D:SpM extrapolated using coords
  <sparsity:sparsity for geom step 15
    nrows_g=164 nrows=164 sparsity=1.0000 nnzs=26896, refcount: 9>
  <dData2D:(temp array for extrapolation) n=26896 m=1, refcount: 1>
refcount: 1>
No. of atoms with KB's overlaping orbs in proc 0. Max # of overlaps:      12     237
New grid distribution:   1
           1       1:   32    1:   32    1:   45

InitMesh: MESH =    64 x    64 x    90 =      368640
InitMesh: (bp) =    32 x    32 x    45 =       46080
InitMesh: Mesh cutoff (required, used) =   300.000   325.205 Ry
ExtMesh (bp) on 0 =   116 x   112 x   133 =     1727936
PhiOnMesh: Number of (b)points on node 0 =                46080
PhiOnMesh: nlist on node 0 =              2418376

        iscf     Eharris(eV)        E_KS(eV)     FreeEng(eV)     dDmax    Ef(eV) dHmax(eV)
   scf:    1    -5512.092356    -5512.219006    -5512.219006  0.010627 -3.130406  0.138664
   scf:    2    -5512.068065    -5512.174662    -5512.174662  0.011974 -3.114137  0.461441
   scf:    3    -5512.230675    -5512.223353    -5512.223353  0.009558 -3.126090  0.027560
   scf:    4    -5512.223493    -5512.223469    -5512.223469  0.000493 -3.125740  0.006196
   scf:    5    -5512.223487    -5512.223479    -5512.223479  0.000184 -3.125605  0.003034
   scf:    6    -5512.223486    -5512.223482    -5512.223482  0.000141 -3.125494  0.002013
   scf:    7    -5512.223486    -5512.223484    -5512.223484  0.000113 -3.125286  0.001490
   scf:    8    -5512.223485    -5512.223485    -5512.223485  0.000053 -3.125282  0.001019
   scf:    9    -5512.223485    -5512.223485    -5512.223485  0.000033 -3.125204  0.000530

SCF Convergence by DM+H criterion
max |DM_out - DM_in|         :     0.0000328974
max |H_out - H_in|      (eV) :     0.0005304797
SCF cycle converged after 9 iterations

[...]
   scf:    5    -5512.274762    -5512.274756    -5512.274756  0.000129 -3.037084  0.002423
   scf:    6    -5512.274760    -5512.274758    -5512.274758  0.000105 -3.037059  0.001910
   scf:    7    -5512.274759    -5512.274759    -5512.274759  0.000032 -3.037054  0.001030
   scf:    8    -5512.274759    -5512.274759    -5512.274759  0.000026 -3.037041  0.000380

SCF Convergence by DM+H criterion
max |DM_out - DM_in|         :     0.0000260484
max |H_out - H_in|      (eV) :     0.0003799711
SCF cycle converged after 8 iterations

Using DM_out to compute the final energy and forces
No. of atoms with KB's overlaping orbs in proc 0. Max # of overlaps:      12     232

siesta: E_KS(eV) =            -5512.2748

siesta: Atomic forces (eV/Ang):
----------------------------------------
   Tot   -0.011729    0.057784    0.019936
----------------------------------------
   Max    0.025268
   Res    0.010249    sqrt( Sum f_i^2 / 3N )
----------------------------------------
   Max    0.025268    constrained

Stress tensor Voigt[x,y,z,yz,xz,xy] (kbar):       -4.15       33.35       85.18       -9.35        0.21        0.21
(Free)E + p*V (eV/cell)    -5518.4940
Target enthalpy (eV/cell)    -5512.2748

cgvc: Finished line minimization   10.  Mean atomic displacement =    0.0028

                     ====================================
                        Begin CG opt. move =     24
                     ====================================

outcell: Unit cell vectors (Ang):
        5.760000    0.000000    0.000000
        0.000000    5.900000    0.000000
        0.000000    0.000000    7.691000

outcell: Cell vector modules (Ang)   :    5.760000    5.900000    7.691000
outcell: Cell angles (23,13,12) (deg):     90.0000     90.0000     90.0000
outcell: Cell volume (Ang**3)        :    261.3709
Gamma-point calculation with interaction between periodic images
Some features might not work optimally:
e.g. DM initialization from atomic data
<dSpData1D:S at geom step 24
  <sparsity:sparsity for geom step 24
    nrows_g=164 nrows=164 sparsity=1.0000 nnzs=26896, refcount: 7>
  <dData1D:(new from dSpData1D) n=26896, refcount: 1>
refcount: 1>
new_DM -- step:    25
Re-using DM from previous geometries...
Number of DMs in history: 1
 DM extrapolation coefficients: 
1   1.00000
New DM after history re-use:
<dSpData2D:SpM extrapolated using coords
  <sparsity:sparsity for geom step 24
    nrows_g=164 nrows=164 sparsity=1.0000 nnzs=26896, refcount: 9>
  <dData2D:(temp array for extrapolation) n=26896 m=1, refcount: 1>
refcount: 1>
No. of atoms with KB's overlaping orbs in proc 0. Max # of overlaps:      12     227
New grid distribution:   1
           1       1:   32    1:   32    1:   45

InitMesh: MESH =    64 x    64 x    90 =      368640
InitMesh: (bp) =    32 x    32 x    45 =       46080
InitMesh: Mesh cutoff (required, used) =   300.000   325.205 Ry
ExtMesh (bp) on 0 =   116 x   112 x   133 =     1727936
PhiOnMesh: Number of (b)points on node 0 =                46080
PhiOnMesh: nlist on node 0 =              2418099

        iscf     Eharris(eV)        E_KS(eV)     FreeEng(eV)     dDmax    Ef(eV) dHmax(eV)
   scf:    1    -5512.265798    -5512.274704    -5512.274704  0.001620 -3.039114  0.030844
   scf:    2    -5512.269983    -5512.273341    -5512.273341  0.001996 -3.040840  0.092380
   scf:    3    -5512.275140    -5512.274870    -5512.274870  0.001577 -3.039522  0.005138
   scf:    4    -5512.274874    -5512.274874    -5512.274874  0.000093 -3.039536  0.001718
   scf:    5    -5512.274873    -5512.274873    -5512.274873  0.000030 -3.039618  0.000537

SCF Convergence by DM+H criterion
max |DM_out - DM_in|         :     0.0000297179
max |H_out - H_in|      (eV) :     0.0005366164
SCF cycle converged after 5 iterations

Using DM_out to compute the final energy and forces
No. of atoms with KB's overlaping orbs in proc 0. Max # of overlaps:      12     227

siesta: E_KS(eV) =            -5512.2749

siesta: Atomic forces (eV/Ang):
----------------------------------------
   Tot   -0.013373    0.034991    0.021884
----------------------------------------
   Max    0.011750
   Res    0.005619    sqrt( Sum f_i^2 / 3N )
----------------------------------------
   Max    0.011750    constrained

Stress tensor Voigt[x,y,z,yz,xz,xy] (kbar):       -4.25       33.10       85.19       -9.12       -0.09       -0.09
(Free)E + p*V (eV/cell)    -5518.4761
Target enthalpy (eV/cell)    -5512.2749

                     ====================================
                        Begin CG opt. move =     25
                     ====================================

outcell: Unit cell vectors (Ang):
        5.760000    0.000000    0.000000
        0.000000    5.900000    0.000000
        0.000000    0.000000    7.691000

outcell: Cell vector modules (Ang)   :    5.760000    5.900000    7.691000
outcell: Cell angles (23,13,12) (deg):     90.0000     90.0000     90.0000
outcell: Cell volume (Ang**3)        :    261.3709
Gamma-point calculation with interaction between periodic images
Some features might not work optimally:
e.g. DM initialization from atomic data
<dSpData1D:S at geom step 25
  <sparsity:sparsity for geom step 25
    nrows_g=164 nrows=164 sparsity=1.0000 nnzs=26896, refcount: 7>
  <dData1D:(new from dSpData1D) n=26896, refcount: 1>
refcount: 1>
new_DM -- step:    26
Re-using DM from previous geometries...
Number of DMs in history: 1
 DM extrapolation coefficients: 
1   1.00000
New DM after history re-use:
<dSpData2D:SpM extrapolated using coords
  <sparsity:sparsity for geom step 25
    nrows_g=164 nrows=164 sparsity=1.0000 nnzs=26896, refcount: 9>
  <dData2D:(temp array for extrapolation) n=26896 m=1, refcount: 1>
refcount: 1>
No. of atoms with KB's overlaping orbs in proc 0. Max # of overlaps:      12     227
New grid distribution:   1
           1       1:   32    1:   32    1:   45

InitMesh: MESH =    64 x    64 x    90 =      368640
InitMesh: (bp) =    32 x    32 x    45 =       46080
InitMesh: Mesh cutoff (required, used) =   300.000   325.205 Ry
ExtMesh (bp) on 0 =   116 x   112 x   133 =     1727936
PhiOnMesh: Number of (b)points on node 0 =                46080
PhiOnMesh: nlist on node 0 =              2418156

        iscf     Eharris(eV)        E_KS(eV)     FreeEng(eV)     dDmax    Ef(eV) dHmax(eV)
   scf:    1    -5512.276084    -5512.274871    -5512.274871  0.000285 -3.039355  0.004574
   scf:    2    -5512.274713    -5512.274823    -5512.274823  0.000344 -3.039113  0.017089
   scf:    3    -5512.274882    -5512.274874    -5512.274874  0.000295 -3.039271  0.000831
   scf:    4    -5512.274875    -5512.274875    -5512.274875  0.000014 -3.039268  0.000163

SCF Convergence by DM+H criterion
max |DM_out - DM_in|         :     0.0000136868
max |H_out - H_in|      (eV) :     0.0001627927
SCF cycle converged after 4 iterations

Using DM_out to compute the final energy and forces
No. of atoms with KB's overlaping orbs in proc 0. Max # of overlaps:      12     227

siesta: E_KS(eV) =            -5512.2749

siesta: Atomic forces (eV/Ang):
----------------------------------------
   Tot   -0.010431    0.038155    0.020846
----------------------------------------
   Max    0.010051
   Res    0.004674    sqrt( Sum f_i^2 / 3N )
----------------------------------------
   Max    0.010051    constrained

Stress tensor Voigt[x,y,z,yz,xz,xy] (kbar):       -4.26       33.20       85.18       -9.17       -0.06       -0.07
(Free)E + p*V (eV/cell)    -5518.4803
Target enthalpy (eV/cell)    -5512.2749

cgvc: Finished line minimization   11.  Mean atomic displacement =    0.0024

                     ====================================
                        Begin CG opt. move =     26
                     ====================================

outcell: Unit cell vectors (Ang):
        5.760000    0.000000    0.000000
        0.000000    5.900000    0.000000
        0.000000    0.000000    7.691000

outcell: Cell vector modules (Ang)   :    5.760000    5.900000    7.691000
outcell: Cell angles (23,13,12) (deg):     90.0000     90.0000     90.0000
outcell: Cell volume (Ang**3)        :    261.3709
Gamma-point calculation with interaction between periodic images
Some features might not work optimally:
e.g. DM initialization from atomic data
<dSpData1D:S at geom step 26
  <sparsity:sparsity for geom step 26
    nrows_g=164 nrows=164 sparsity=1.0000 nnzs=26896, refcount: 7>
  <dData1D:(new from dSpData1D) n=26896, refcount: 1>
refcount: 1>
new_DM -- step:    27
Re-using DM from previous geometries...
Number of DMs in history: 1
 DM extrapolation coefficients: 
1   1.00000
New DM after history re-use:
<dSpData2D:SpM extrapolated using coords
  <sparsity:sparsity for geom step 26
    nrows_g=164 nrows=164 sparsity=1.0000 nnzs=26896, refcount: 9>
  <dData2D:(temp array for extrapolation) n=26896 m=1, refcount: 1>
refcount: 1>
No. of atoms with KB's overlaping orbs in proc 0. Max # of overlaps:      12     232
New grid distribution:   1
           1       1:   32    1:   32    1:   45

InitMesh: MESH =    64 x    64 x    90 =      368640
InitMesh: (bp) =    32 x    32 x    45 =       46080
InitMesh: Mesh cutoff (required, used) =   300.000   325.205 Ry
ExtMesh (bp) on 0 =   116 x   112 x   133 =     1727936
PhiOnMesh: Number of (b)points on node 0 =                46080
PhiOnMesh: nlist on node 0 =              2418166

        iscf     Eharris(eV)        E_KS(eV)     FreeEng(eV)     dDmax    Ef(eV) dHmax(eV)
   scf:    1    -5512.259401    -5512.274882    -5512.274882  0.001186 -3.039598  0.008272
   scf:    2    -5512.274258    -5512.274706    -5512.274706  0.000668 -3.038788  0.036274
   scf:    3    -5512.274937    -5512.274912    -5512.274912  0.000565 -3.039400  0.002398
   scf:    4    -5512.274916    -5512.274915    -5512.274915  0.000045 -3.039334  0.000443

SCF Convergence by DM+H criterion
max |DM_out - DM_in|         :     0.0000449618
max |H_out - H_in|      (eV) :     0.0004433444
SCF cycle converged after 4 iterations

Using DM_out to compute the final energy and forces
No. of atoms with KB's overlaping orbs in proc 0. Max # of overlaps:      12     232

siesta: E_KS(eV) =            -5512.2749

siesta: Atomic forces (eV/Ang):
----------------------------------------
   Tot   -0.013929    0.029464    0.023558
----------------------------------------
   Max    0.013971
   Res    0.005545    sqrt( Sum f_i^2 / 3N )
----------------------------------------
   Max    0.013971    constrained

Stress tensor Voigt[x,y,z,yz,xz,xy] (kbar):       -4.63       32.85       85.01       -9.24        0.13        0.12
(Free)E + p*V (eV/cell)    -5518.4320
Target enthalpy (eV/cell)    -5512.2749

                     ====================================
                        Begin CG opt. move =     27
                     ====================================

outcell: Unit cell vectors (Ang):
        5.760000    0.000000    0.000000
        0.000000    5.900000    0.000000
        0.000000    0.000000    7.691000

outcell: Cell vector modules (Ang)   :    5.760000    5.900000    7.691000
outcell: Cell angles (23,13,12) (deg):     90.0000     90.0000     90.0000
outcell: Cell volume (Ang**3)        :    261.3709
Gamma-point calculation with interaction between periodic images
Some features might not work optimally:
e.g. DM initialization from atomic data
<dSpData1D:S at geom step 27
  <sparsity:sparsity for geom step 27
    nrows_g=164 nrows=164 sparsity=1.0000 nnzs=26896, refcount: 7>
  <dData1D:(new from dSpData1D) n=26896, refcount: 1>
refcount: 1>
new_DM -- step:    28
Re-using DM from previous geometries...
Number of DMs in history: 1
 DM extrapolation coefficients: 
1   1.00000
New DM after history re-use:
<dSpData2D:SpM extrapolated using coords
  <sparsity:sparsity for geom step 27
    nrows_g=164 nrows=164 sparsity=1.0000 nnzs=26896, refcount: 9>
  <dData2D:(temp array for extrapolation) n=26896 m=1, refcount: 1>
refcount: 1>
No. of atoms with KB's overlaping orbs in proc 0. Max # of overlaps:      12     232
New grid distribution:   1
           1       1:   32    1:   32    1:   45

InitMesh: MESH =    64 x    64 x    90 =      368640
InitMesh: (bp) =    32 x    32 x    45 =       46080
InitMesh: Mesh cutoff (required, used) =   300.000   325.205 Ry
ExtMesh (bp) on 0 =   116 x   112 x   133 =     1727936
PhiOnMesh: Number of (b)points on node 0 =                46080
PhiOnMesh: nlist on node 0 =              2418108

        iscf     Eharris(eV)        E_KS(eV)     FreeEng(eV)     dDmax    Ef(eV) dHmax(eV)
   scf:    1    -5512.279753    -5512.274910    -5512.274910  0.000388 -3.039179  0.002882
   scf:    2    -5512.274838    -5512.274890    -5512.274890  0.000232 -3.039462  0.013332
   scf:    3    -5512.274917    -5512.274915    -5512.274915  0.000195 -3.039263  0.000910
   scf:    4    -5512.274915    -5512.274915    -5512.274915  0.000017 -3.039302  0.000182

SCF Convergence by DM+H criterion
max |DM_out - DM_in|         :     0.0000168954
max |H_out - H_in|      (eV) :     0.0001824867
SCF cycle converged after 4 iterations

Using DM_out to compute the final energy and forces
No. of atoms with KB's overlaping orbs in proc 0. Max # of overlaps:      12     232

siesta: E_KS(eV) =            -5512.2749

siesta: Atomic forces (eV/Ang):
----------------------------------------
   Tot   -0.014329    0.033492    0.027252
----------------------------------------
   Max    0.008372
   Res    0.004050    sqrt( Sum f_i^2 / 3N )
----------------------------------------
   Max    0.008372    constrained

Stress tensor Voigt[x,y,z,yz,xz,xy] (kbar):       -4.50       32.92       85.08       -9.23        0.07        0.10
(Free)E + p*V (eV/cell)    -5518.4473
Target enthalpy (eV/cell)    -5512.2749

outcoor: Relaxed atomic coordinates (Ang):                  
    0.01337413    0.08824469    0.28367562   1       1  Pd
    2.86465267    3.03794822    0.28284237   1       2  Pd
    0.01318622    3.03829337    4.12918514   1       3  Pd
    2.86466262    5.98793805    4.12839954   1       4  Pd
    3.41647708    0.59172588    0.48526543   2       5  Se
    0.78371098    2.15754480   -0.76560933   2       6  Se
    5.22151915    3.54186260    0.48536403   2       7  Se
    2.09351084    5.10760838   -0.76565143   2       8  Se
    0.78368946    5.10758472    3.07991026   2       9  Se
    3.41644249    3.54172049    4.33075538   2      10  Se
    5.22147872    0.59186402    4.33086504   2      11  Se
    2.09344983    2.15758803    3.07984371   2      12  Se

coxmol: Writing XMOL coordinates into file siesta.xyz                                                          

siesta: Program's energy decomposition (eV):
siesta: Ebs     =      -764.207119
siesta: Eions   =      6525.756472
siesta: Ena     =       512.088250
siesta: Ekin    =      3348.837522
siesta: Enl     =     -1475.510091
siesta: Eso     =         0.000000
siesta: Edftu   =         0.000000
siesta: DEna    =        44.724268
siesta: DUscf   =         3.700804
siesta: DUext   =         0.000000
siesta: Exc     =     -1420.359196
siesta: eta*DQ  =         0.000000
siesta: Emadel  =         0.000000
siesta: Emeta   =         0.000000
siesta: Emolmec =         0.000000
siesta: Ekinion =         0.000000
siesta: Eharris =     -5512.274915
siesta: Etot    =     -5512.274915
siesta: FreeEng =     -5512.274915

siesta: Final energy (eV):
siesta:  Band Struct. =    -764.207119
siesta:       Kinetic =    3348.837522
siesta:       Hartree =    1068.034460
siesta:       Edftu   =       0.000000
siesta:       Eso     =       0.000000
siesta:    Ext. field =       0.000000
siesta:   Exch.-corr. =   -1420.359196
siesta:  Ion-electron =   -4881.387520
siesta:       Ion-ion =   -3627.400182
siesta:       Ekinion =       0.000000
siesta:         Total =   -5512.274915
siesta:         Fermi =      -3.039302

siesta: Stress tensor (static) (eV/Ang**3):
siesta:    -0.002806    0.000060    0.000043
siesta:     0.000060    0.020548   -0.005759
siesta:     0.000043   -0.005760    0.053104

siesta: Cell volume =        261.370944 Ang**3

siesta: Pressure (static):
siesta:                Solid            Molecule  Units
siesta:          -0.00025720         -0.00025684  Ry/Bohr**3
siesta:          -0.02361540         -0.02358212  eV/Ang**3
siesta:         -37.83644602        -37.78312374  kBar
(Free)E+ p_basis*V_orbitals  =       -5505.968289
(Free)Eharris+ p_basis*V_orbitals  =       -5505.968289

cite: Please see "siesta.bib" for an exhaustive BiBTeX file.
cite: Please clearly indicate Siesta version in published work: 4.1.5
cite: This calculation has made use of the following articles
cite: which are encouraged to be cited in a published work.
        Primary SIESTA paper
          DOI: www.doi.org/10.1088/0953-8984/14/11/302


timer: Elapsed wall time (sec) =     424.449
timer: CPU execution times (sec):

Routine            Calls   Time/call    Tot.time        %
siesta                 1     624.609     624.609   100.00
Setup                  1       0.188       0.188     0.03
bands                  1       0.000       0.000     0.00
KSV_init               1       0.000       0.000     0.00
IterGeom              28      22.301     624.422    99.97
state_init            28       0.093       2.609     0.42
hsparse               28       0.031       0.859     0.14
overlap               28       0.060       1.688     0.27
Setup_H0              28       2.927      81.953    13.12
naefs                 56       0.000       0.000     0.00
MolMec                56       0.000       0.000     0.00
kinefsm               56       0.039       2.156     0.35
nlefsm                56       0.212      11.859     1.90
DHSCF_Init            28       2.599      72.781    11.65
DHSCF1                28       0.045       1.266     0.20
INITMESH              28       0.000       0.000     0.00
DHSCF2                28       2.554      71.516    11.45
REMESH                28       0.529      14.812     2.37
REORD               1068       0.000       0.500     0.08
PHION                 28       1.780      49.844     7.98
COMM_BSC            1380       0.000       0.547     0.09
POISON               352       0.036      12.828     2.05
fft                  704       0.017      11.766     1.88
IterSCF              268       1.662     445.516    71.33
setup_H              296       1.425     421.672    67.51
DHSCF                324       1.574     509.922    81.64
DHSCF3               324       1.367     442.891    70.91
rhoofd               324       0.997     323.188    51.74
XC                   324       0.041      13.344     2.14
GXC-CellXC           324       0.040      13.078     2.09
cellXC               324       0.040      13.078     2.09
vmat                 324       0.283      91.750    14.69
compute_dm           268       0.087      23.328     3.73
diagon               268       0.087      23.328     3.73
r-eigvec             268       0.026       7.031     1.13
r-buildHS            268       0.000       0.016     0.00
rdiag                268       0.026       7.016     1.12
rdiag1               268       0.002       0.609     0.10
rdiag2               268       0.005       1.391     0.22
rdiag3               268       0.018       4.750     0.76
rdiag4               268       0.000       0.125     0.02
r-buildD             268       0.060      15.953     2.55
MIXER                240       0.000       0.031     0.01
PostSCF               28       3.365      94.219    15.08
DHSCF4                28       2.394      67.031    10.73
dfscf                 28       2.176      60.938     9.76
overfsm               28       0.021       0.594     0.10
state_analysis        28       0.001       0.016     0.00
siesta_move           28       0.003       0.094     0.02
Analysis               1       0.000       0.000     0.00
siesta_analysis        1       0.000       0.000     0.00
optical                1       0.000       0.000     0.00
  
>> End of run:  29-MAY-2023  18:23:19
Job completed
